+ 0.5 1 4 tcp 40 ------- 0 1.0 4.0 0 0
- 0.5 1 4 tcp 40 ------- 0 1.0 4.0 0 0
r 0.50232 1 4 tcp 40 ------- 0 1.0 4.0 0 0
+ 0.50232 4 1 ack 40 ------- 0 4.0 1.0 0 1
- 0.50232 4 1 ack 40 ------- 0 4.0 1.0 0 1
r 0.50464 4 1 ack 40 ------- 0 4.0 1.0 0 1
+ 0.50464 1 4 tcp 1040 ------- 0 1.0 4.0 1 2
- 0.50464 1 4 tcp 1040 ------- 0 1.0 4.0 1 2
+ 0.50464 1 4 tcp 1040 ------- 0 1.0 4.0 2 3
- 0.51296 1 4 tcp 1040 ------- 0 1.0 4.0 2 3
r 0.51496 1 4 tcp 1040 ------- 0 1.0 4.0 1 2
+ 0.51496 4 1 ack 40 ------- 0 4.0 1.0 1 4
- 0.51496 4 1 ack 40 ------- 0 4.0 1.0 1 4
r 0.51728 4 1 ack 40 ------- 0 4.0 1.0 1 4
+ 0.51728 1 4 tcp 1040 ------- 0 1.0 4.0 3 5
+ 0.51728 1 4 tcp 1040 ------- 0 1.0 4.0 4 6
- 0.52128 1 4 tcp 1040 ------- 0 1.0 4.0 3 5
r 0.52328 1 4 tcp 1040 ------- 0 1.0 4.0 2 3
+ 0.52328 4 1 ack 40 ------- 0 4.0 1.0 2 7
- 0.52328 4 1 ack 40 ------- 0 4.0 1.0 2 7
r 0.5256 4 1 ack 40 ------- 0 4.0 1.0 2 7
+ 0.5256 1 4 tcp 1040 ------- 0 1.0 4.0 5 8
+ 0.5256 1 4 tcp 1040 ------- 0 1.0 4.0 6 9
- 0.5296 1 4 tcp 1040 ------- 0 1.0 4.0 4 6
r 0.5316 1 4 tcp 1040 ------- 0 1.0 4.0 3 5
+ 0.5316 4 1 ack 40 ------- 0 4.0 1.0 3 10
- 0.5316 4 1 ack 40 ------- 0 4.0 1.0 3 10
r 0.53392 4 1 ack 40 ------- 0 4.0 1.0 3 10
+ 0.53392 1 4 tcp 1040 ------- 0 1.0 4.0 7 11
+ 0.53392 1 4 tcp 1040 ------- 0 1.0 4.0 8 12
- 0.53792 1 4 tcp 1040 ------- 0 1.0 4.0 5 8
r 0.53992 1 4 tcp 1040 ------- 0 1.0 4.0 4 6
+ 0.53992 4 1 ack 40 ------- 0 4.0 1.0 4 13
- 0.53992 4 1 ack 40 ------- 0 4.0 1.0 4 13
r 0.54224 4 1 ack 40 ------- 0 4.0 1.0 4 13
+ 0.54224 1 4 tcp 1040 ------- 0 1.0 4.0 9 14
+ 0.54224 1 4 tcp 1040 ------- 0 1.0 4.0 10 15
- 0.54624 1 4 tcp 1040 ------- 0 1.0 4.0 6 9
r 0.54824 1 4 tcp 1040 ------- 0 1.0 4.0 5 8
+ 0.54824 4 1 ack 40 ------- 0 4.0 1.0 5 16
- 0.54824 4 1 ack 40 ------- 0 4.0 1.0 5 16
r 0.55056 4 1 ack 40 ------- 0 4.0 1.0 5 16
+ 0.55056 1 4 tcp 1040 ------- 0 1.0 4.0 11 17
+ 0.55056 1 4 tcp 1040 ------- 0 1.0 4.0 12 18
- 0.55456 1 4 tcp 1040 ------- 0 1.0 4.0 7 11
r 0.55656 1 4 tcp 1040 ------- 0 1.0 4.0 6 9
+ 0.55656 4 1 ack 40 ------- 0 4.0 1.0 6 19
- 0.55656 4 1 ack 40 ------- 0 4.0 1.0 6 19
r 0.55888 4 1 ack 40 ------- 0 4.0 1.0 6 19
+ 0.55888 1 4 tcp 1040 ------- 0 1.0 4.0 13 20
+ 0.55888 1 4 tcp 1040 ------- 0 1.0 4.0 14 21
- 0.56288 1 4 tcp 1040 ------- 0 1.0 4.0 8 12
r 0.56488 1 4 tcp 1040 ------- 0 1.0 4.0 7 11
+ 0.56488 4 1 ack 40 ------- 0 4.0 1.0 7 22
- 0.56488 4 1 ack 40 ------- 0 4.0 1.0 7 22
r 0.5672 4 1 ack 40 ------- 0 4.0 1.0 7 22
+ 0.5672 1 4 tcp 1040 ------- 0 1.0 4.0 15 23
+ 0.5672 1 4 tcp 1040 ------- 0 1.0 4.0 16 24
- 0.5712 1 4 tcp 1040 ------- 0 1.0 4.0 9 14
r 0.5732 1 4 tcp 1040 ------- 0 1.0 4.0 8 12
+ 0.5732 4 1 ack 40 ------- 0 4.0 1.0 8 25
- 0.5732 4 1 ack 40 ------- 0 4.0 1.0 8 25
r 0.57552 4 1 ack 40 ------- 0 4.0 1.0 8 25
+ 0.57552 1 4 tcp 1040 ------- 0 1.0 4.0 17 26
+ 0.57552 1 4 tcp 1040 ------- 0 1.0 4.0 18 27
- 0.57952 1 4 tcp 1040 ------- 0 1.0 4.0 10 15
r 0.58152 1 4 tcp 1040 ------- 0 1.0 4.0 9 14
+ 0.58152 4 1 ack 40 ------- 0 4.0 1.0 9 28
- 0.58152 4 1 ack 40 ------- 0 4.0 1.0 9 28
r 0.58384 4 1 ack 40 ------- 0 4.0 1.0 9 28
+ 0.58384 1 4 tcp 1040 ------- 0 1.0 4.0 19 29
+ 0.58384 1 4 tcp 1040 ------- 0 1.0 4.0 20 30
- 0.58784 1 4 tcp 1040 ------- 0 1.0 4.0 11 17
r 0.58984 1 4 tcp 1040 ------- 0 1.0 4.0 10 15
+ 0.58984 4 1 ack 40 ------- 0 4.0 1.0 10 31
- 0.58984 4 1 ack 40 ------- 0 4.0 1.0 10 31
r 0.59216 4 1 ack 40 ------- 0 4.0 1.0 10 31
+ 0.59216 1 4 tcp 1040 ------- 0 1.0 4.0 21 32
+ 0.59216 1 4 tcp 1040 ------- 0 1.0 4.0 22 33
- 0.59616 1 4 tcp 1040 ------- 0 1.0 4.0 12 18
r 0.59816 1 4 tcp 1040 ------- 0 1.0 4.0 11 17
+ 0.59816 4 1 ack 40 ------- 0 4.0 1.0 11 34
- 0.59816 4 1 ack 40 ------- 0 4.0 1.0 11 34
r 0.60048 4 1 ack 40 ------- 0 4.0 1.0 11 34
+ 0.60048 1 4 tcp 1040 ------- 0 1.0 4.0 23 35
+ 0.60048 1 4 tcp 1040 ------- 0 1.0 4.0 24 36
- 0.60448 1 4 tcp 1040 ------- 0 1.0 4.0 13 20
r 0.60648 1 4 tcp 1040 ------- 0 1.0 4.0 12 18
+ 0.60648 4 1 ack 40 ------- 0 4.0 1.0 12 37
- 0.60648 4 1 ack 40 ------- 0 4.0 1.0 12 37
r 0.6088 4 1 ack 40 ------- 0 4.0 1.0 12 37
+ 0.6088 1 4 tcp 1040 ------- 0 1.0 4.0 25 38
+ 0.6088 1 4 tcp 1040 ------- 0 1.0 4.0 26 39
- 0.6128 1 4 tcp 1040 ------- 0 1.0 4.0 14 21
r 0.6148 1 4 tcp 1040 ------- 0 1.0 4.0 13 20
+ 0.6148 4 1 ack 40 ------- 0 4.0 1.0 13 40
- 0.6148 4 1 ack 40 ------- 0 4.0 1.0 13 40
r 0.61712 4 1 ack 40 ------- 0 4.0 1.0 13 40
+ 0.61712 1 4 tcp 1040 ------- 0 1.0 4.0 27 41
+ 0.61712 1 4 tcp 1040 ------- 0 1.0 4.0 28 42
- 0.62112 1 4 tcp 1040 ------- 0 1.0 4.0 15 23
r 0.62312 1 4 tcp 1040 ------- 0 1.0 4.0 14 21
+ 0.62312 4 1 ack 40 ------- 0 4.0 1.0 14 43
- 0.62312 4 1 ack 40 ------- 0 4.0 1.0 14 43
r 0.62544 4 1 ack 40 ------- 0 4.0 1.0 14 43
+ 0.62544 1 4 tcp 1040 ------- 0 1.0 4.0 29 44
+ 0.62544 1 4 tcp 1040 ------- 0 1.0 4.0 30 45
- 0.62944 1 4 tcp 1040 ------- 0 1.0 4.0 16 24
r 0.63144 1 4 tcp 1040 ------- 0 1.0 4.0 15 23
+ 0.63144 4 1 ack 40 ------- 0 4.0 1.0 15 46
- 0.63144 4 1 ack 40 ------- 0 4.0 1.0 15 46
r 0.63376 4 1 ack 40 ------- 0 4.0 1.0 15 46
+ 0.63376 1 4 tcp 1040 ------- 0 1.0 4.0 31 47
+ 0.63376 1 4 tcp 1040 ------- 0 1.0 4.0 32 48
- 0.63776 1 4 tcp 1040 ------- 0 1.0 4.0 17 26
r 0.63976 1 4 tcp 1040 ------- 0 1.0 4.0 16 24
+ 0.63976 4 1 ack 40 ------- 0 4.0 1.0 16 49
- 0.63976 4 1 ack 40 ------- 0 4.0 1.0 16 49
r 0.64208 4 1 ack 40 ------- 0 4.0 1.0 16 49
+ 0.64208 1 4 tcp 1040 ------- 0 1.0 4.0 33 50
+ 0.64208 1 4 tcp 1040 ------- 0 1.0 4.0 34 51
- 0.64608 1 4 tcp 1040 ------- 0 1.0 4.0 18 27
r 0.64808 1 4 tcp 1040 ------- 0 1.0 4.0 17 26
+ 0.64808 4 1 ack 40 ------- 0 4.0 1.0 17 52
- 0.64808 4 1 ack 40 ------- 0 4.0 1.0 17 52
r 0.6504 4 1 ack 40 ------- 0 4.0 1.0 17 52
+ 0.6504 1 4 tcp 1040 ------- 0 1.0 4.0 35 53
+ 0.6504 1 4 tcp 1040 ------- 0 1.0 4.0 36 54
- 0.6544 1 4 tcp 1040 ------- 0 1.0 4.0 19 29
r 0.6564 1 4 tcp 1040 ------- 0 1.0 4.0 18 27
+ 0.6564 4 1 ack 40 ------- 0 4.0 1.0 18 55
- 0.6564 4 1 ack 40 ------- 0 4.0 1.0 18 55
r 0.65872 4 1 ack 40 ------- 0 4.0 1.0 18 55
+ 0.65872 1 4 tcp 1040 ------- 0 1.0 4.0 37 56
+ 0.65872 1 4 tcp 1040 ------- 0 1.0 4.0 38 57
- 0.66272 1 4 tcp 1040 ------- 0 1.0 4.0 20 30
r 0.66472 1 4 tcp 1040 ------- 0 1.0 4.0 19 29
+ 0.66472 4 1 ack 40 ------- 0 4.0 1.0 19 58
- 0.66472 4 1 ack 40 ------- 0 4.0 1.0 19 58
r 0.66704 4 1 ack 40 ------- 0 4.0 1.0 19 58
+ 0.66704 1 4 tcp 1040 ------- 0 1.0 4.0 39 59
- 0.67104 1 4 tcp 1040 ------- 0 1.0 4.0 21 32
r 0.67304 1 4 tcp 1040 ------- 0 1.0 4.0 20 30
+ 0.67304 4 1 ack 40 ------- 0 4.0 1.0 20 60
- 0.67304 4 1 ack 40 ------- 0 4.0 1.0 20 60
r 0.67536 4 1 ack 40 ------- 0 4.0 1.0 20 60
+ 0.67536 1 4 tcp 1040 ------- 0 1.0 4.0 40 61
- 0.67936 1 4 tcp 1040 ------- 0 1.0 4.0 22 33
r 0.68136 1 4 tcp 1040 ------- 0 1.0 4.0 21 32
+ 0.68136 4 1 ack 40 ------- 0 4.0 1.0 21 62
- 0.68136 4 1 ack 40 ------- 0 4.0 1.0 21 62
r 0.68368 4 1 ack 40 ------- 0 4.0 1.0 21 62
+ 0.68368 1 4 tcp 1040 ------- 0 1.0 4.0 41 63
- 0.68768 1 4 tcp 1040 ------- 0 1.0 4.0 23 35
r 0.68968 1 4 tcp 1040 ------- 0 1.0 4.0 22 33
+ 0.68968 4 1 ack 40 ------- 0 4.0 1.0 22 64
- 0.68968 4 1 ack 40 ------- 0 4.0 1.0 22 64
r 0.692 4 1 ack 40 ------- 0 4.0 1.0 22 64
+ 0.692 1 4 tcp 1040 ------- 0 1.0 4.0 42 65
- 0.696 1 4 tcp 1040 ------- 0 1.0 4.0 24 36
r 0.698 1 4 tcp 1040 ------- 0 1.0 4.0 23 35
+ 0.698 4 1 ack 40 ------- 0 4.0 1.0 23 66
- 0.698 4 1 ack 40 ------- 0 4.0 1.0 23 66
r 0.70032 4 1 ack 40 ------- 0 4.0 1.0 23 66
+ 0.70032 1 4 tcp 1040 ------- 0 1.0 4.0 43 67
- 0.70432 1 4 tcp 1040 ------- 0 1.0 4.0 25 38
r 0.70632 1 4 tcp 1040 ------- 0 1.0 4.0 24 36
+ 0.70632 4 1 ack 40 ------- 0 4.0 1.0 24 68
- 0.70632 4 1 ack 40 ------- 0 4.0 1.0 24 68
r 0.70864 4 1 ack 40 ------- 0 4.0 1.0 24 68
+ 0.70864 1 4 tcp 1040 ------- 0 1.0 4.0 44 69
- 0.71264 1 4 tcp 1040 ------- 0 1.0 4.0 26 39
r 0.71464 1 4 tcp 1040 ------- 0 1.0 4.0 25 38
+ 0.71464 4 1 ack 40 ------- 0 4.0 1.0 25 70
- 0.71464 4 1 ack 40 ------- 0 4.0 1.0 25 70
r 0.71696 4 1 ack 40 ------- 0 4.0 1.0 25 70
+ 0.71696 1 4 tcp 1040 ------- 0 1.0 4.0 45 71
- 0.72096 1 4 tcp 1040 ------- 0 1.0 4.0 27 41
r 0.72296 1 4 tcp 1040 ------- 0 1.0 4.0 26 39
+ 0.72296 4 1 ack 40 ------- 0 4.0 1.0 26 72
- 0.72296 4 1 ack 40 ------- 0 4.0 1.0 26 72
r 0.72528 4 1 ack 40 ------- 0 4.0 1.0 26 72
+ 0.72528 1 4 tcp 1040 ------- 0 1.0 4.0 46 73
- 0.72928 1 4 tcp 1040 ------- 0 1.0 4.0 28 42
r 0.73128 1 4 tcp 1040 ------- 0 1.0 4.0 27 41
+ 0.73128 4 1 ack 40 ------- 0 4.0 1.0 27 74
- 0.73128 4 1 ack 40 ------- 0 4.0 1.0 27 74
r 0.7336 4 1 ack 40 ------- 0 4.0 1.0 27 74
+ 0.7336 1 4 tcp 1040 ------- 0 1.0 4.0 47 75
- 0.7376 1 4 tcp 1040 ------- 0 1.0 4.0 29 44
r 0.7396 1 4 tcp 1040 ------- 0 1.0 4.0 28 42
+ 0.7396 4 1 ack 40 ------- 0 4.0 1.0 28 76
- 0.7396 4 1 ack 40 ------- 0 4.0 1.0 28 76
r 0.74192 4 1 ack 40 ------- 0 4.0 1.0 28 76
+ 0.74192 1 4 tcp 1040 ------- 0 1.0 4.0 48 77
- 0.74592 1 4 tcp 1040 ------- 0 1.0 4.0 30 45
r 0.74792 1 4 tcp 1040 ------- 0 1.0 4.0 29 44
+ 0.74792 4 1 ack 40 ------- 0 4.0 1.0 29 78
- 0.74792 4 1 ack 40 ------- 0 4.0 1.0 29 78
r 0.75024 4 1 ack 40 ------- 0 4.0 1.0 29 78
+ 0.75024 1 4 tcp 1040 ------- 0 1.0 4.0 49 79
- 0.75424 1 4 tcp 1040 ------- 0 1.0 4.0 31 47
r 0.75624 1 4 tcp 1040 ------- 0 1.0 4.0 30 45
+ 0.75624 4 1 ack 40 ------- 0 4.0 1.0 30 80
- 0.75624 4 1 ack 40 ------- 0 4.0 1.0 30 80
r 0.75856 4 1 ack 40 ------- 0 4.0 1.0 30 80
+ 0.75856 1 4 tcp 1040 ------- 0 1.0 4.0 50 81
- 0.76256 1 4 tcp 1040 ------- 0 1.0 4.0 32 48
r 0.76456 1 4 tcp 1040 ------- 0 1.0 4.0 31 47
+ 0.76456 4 1 ack 40 ------- 0 4.0 1.0 31 82
- 0.76456 4 1 ack 40 ------- 0 4.0 1.0 31 82
r 0.76688 4 1 ack 40 ------- 0 4.0 1.0 31 82
+ 0.76688 1 4 tcp 1040 ------- 0 1.0 4.0 51 83
- 0.77088 1 4 tcp 1040 ------- 0 1.0 4.0 33 50
r 0.77288 1 4 tcp 1040 ------- 0 1.0 4.0 32 48
+ 0.77288 4 1 ack 40 ------- 0 4.0 1.0 32 84
- 0.77288 4 1 ack 40 ------- 0 4.0 1.0 32 84
r 0.7752 4 1 ack 40 ------- 0 4.0 1.0 32 84
+ 0.7752 1 4 tcp 1040 ------- 0 1.0 4.0 52 85
- 0.7792 1 4 tcp 1040 ------- 0 1.0 4.0 34 51
r 0.7812 1 4 tcp 1040 ------- 0 1.0 4.0 33 50
+ 0.7812 4 1 ack 40 ------- 0 4.0 1.0 33 86
- 0.7812 4 1 ack 40 ------- 0 4.0 1.0 33 86
r 0.78352 4 1 ack 40 ------- 0 4.0 1.0 33 86
+ 0.78352 1 4 tcp 1040 ------- 0 1.0 4.0 53 87
- 0.78752 1 4 tcp 1040 ------- 0 1.0 4.0 35 53
r 0.78952 1 4 tcp 1040 ------- 0 1.0 4.0 34 51
+ 0.78952 4 1 ack 40 ------- 0 4.0 1.0 34 88
- 0.78952 4 1 ack 40 ------- 0 4.0 1.0 34 88
r 0.79184 4 1 ack 40 ------- 0 4.0 1.0 34 88
+ 0.79184 1 4 tcp 1040 ------- 0 1.0 4.0 54 89
- 0.79584 1 4 tcp 1040 ------- 0 1.0 4.0 36 54
r 0.79784 1 4 tcp 1040 ------- 0 1.0 4.0 35 53
+ 0.79784 4 1 ack 40 ------- 0 4.0 1.0 35 90
- 0.79784 4 1 ack 40 ------- 0 4.0 1.0 35 90
r 0.80016 4 1 ack 40 ------- 0 4.0 1.0 35 90
+ 0.80016 1 4 tcp 1040 ------- 0 1.0 4.0 55 91
- 0.80416 1 4 tcp 1040 ------- 0 1.0 4.0 37 56
r 0.80616 1 4 tcp 1040 ------- 0 1.0 4.0 36 54
+ 0.80616 4 1 ack 40 ------- 0 4.0 1.0 36 92
- 0.80616 4 1 ack 40 ------- 0 4.0 1.0 36 92
r 0.80848 4 1 ack 40 ------- 0 4.0 1.0 36 92
+ 0.80848 1 4 tcp 1040 ------- 0 1.0 4.0 56 93
- 0.81248 1 4 tcp 1040 ------- 0 1.0 4.0 38 57
r 0.81448 1 4 tcp 1040 ------- 0 1.0 4.0 37 56
+ 0.81448 4 1 ack 40 ------- 0 4.0 1.0 37 94
- 0.81448 4 1 ack 40 ------- 0 4.0 1.0 37 94
r 0.8168 4 1 ack 40 ------- 0 4.0 1.0 37 94
+ 0.8168 1 4 tcp 1040 ------- 0 1.0 4.0 57 95
- 0.8208 1 4 tcp 1040 ------- 0 1.0 4.0 39 59
r 0.8228 1 4 tcp 1040 ------- 0 1.0 4.0 38 57
+ 0.8228 4 1 ack 40 ------- 0 4.0 1.0 38 96
- 0.8228 4 1 ack 40 ------- 0 4.0 1.0 38 96
r 0.82512 4 1 ack 40 ------- 0 4.0 1.0 38 96
+ 0.82512 1 4 tcp 1040 ------- 0 1.0 4.0 58 97
- 0.82912 1 4 tcp 1040 ------- 0 1.0 4.0 40 61
r 0.83112 1 4 tcp 1040 ------- 0 1.0 4.0 39 59
+ 0.83112 4 1 ack 40 ------- 0 4.0 1.0 39 98
- 0.83112 4 1 ack 40 ------- 0 4.0 1.0 39 98
r 0.83344 4 1 ack 40 ------- 0 4.0 1.0 39 98
+ 0.83344 1 4 tcp 1040 ------- 0 1.0 4.0 59 99
- 0.83744 1 4 tcp 1040 ------- 0 1.0 4.0 41 63
r 0.83944 1 4 tcp 1040 ------- 0 1.0 4.0 40 61
+ 0.83944 4 1 ack 40 ------- 0 4.0 1.0 40 100
- 0.83944 4 1 ack 40 ------- 0 4.0 1.0 40 100
r 0.84176 4 1 ack 40 ------- 0 4.0 1.0 40 100
+ 0.84176 1 4 tcp 1040 ------- 0 1.0 4.0 60 101
- 0.84576 1 4 tcp 1040 ------- 0 1.0 4.0 42 65
r 0.84776 1 4 tcp 1040 ------- 0 1.0 4.0 41 63
+ 0.84776 4 1 ack 40 ------- 0 4.0 1.0 41 102
- 0.84776 4 1 ack 40 ------- 0 4.0 1.0 41 102
r 0.85008 4 1 ack 40 ------- 0 4.0 1.0 41 102
+ 0.85008 1 4 tcp 1040 ------- 0 1.0 4.0 61 103
- 0.85408 1 4 tcp 1040 ------- 0 1.0 4.0 43 67
r 0.85608 1 4 tcp 1040 ------- 0 1.0 4.0 42 65
+ 0.85608 4 1 ack 40 ------- 0 4.0 1.0 42 104
- 0.85608 4 1 ack 40 ------- 0 4.0 1.0 42 104
r 0.8584 4 1 ack 40 ------- 0 4.0 1.0 42 104
+ 0.8584 1 4 tcp 1040 ------- 0 1.0 4.0 62 105
- 0.8624 1 4 tcp 1040 ------- 0 1.0 4.0 44 69
r 0.8644 1 4 tcp 1040 ------- 0 1.0 4.0 43 67
+ 0.8644 4 1 ack 40 ------- 0 4.0 1.0 43 106
- 0.8644 4 1 ack 40 ------- 0 4.0 1.0 43 106
r 0.86672 4 1 ack 40 ------- 0 4.0 1.0 43 106
+ 0.86672 1 4 tcp 1040 ------- 0 1.0 4.0 63 107
- 0.87072 1 4 tcp 1040 ------- 0 1.0 4.0 45 71
r 0.87272 1 4 tcp 1040 ------- 0 1.0 4.0 44 69
+ 0.87272 4 1 ack 40 ------- 0 4.0 1.0 44 108
- 0.87272 4 1 ack 40 ------- 0 4.0 1.0 44 108
r 0.87504 4 1 ack 40 ------- 0 4.0 1.0 44 108
+ 0.87504 1 4 tcp 1040 ------- 0 1.0 4.0 64 109
- 0.87904 1 4 tcp 1040 ------- 0 1.0 4.0 46 73
r 0.88104 1 4 tcp 1040 ------- 0 1.0 4.0 45 71
+ 0.88104 4 1 ack 40 ------- 0 4.0 1.0 45 110
- 0.88104 4 1 ack 40 ------- 0 4.0 1.0 45 110
r 0.88336 4 1 ack 40 ------- 0 4.0 1.0 45 110
+ 0.88336 1 4 tcp 1040 ------- 0 1.0 4.0 65 111
- 0.88736 1 4 tcp 1040 ------- 0 1.0 4.0 47 75
r 0.88936 1 4 tcp 1040 ------- 0 1.0 4.0 46 73
+ 0.88936 4 1 ack 40 ------- 0 4.0 1.0 46 112
- 0.88936 4 1 ack 40 ------- 0 4.0 1.0 46 112
r 0.89168 4 1 ack 40 ------- 0 4.0 1.0 46 112
+ 0.89168 1 4 tcp 1040 ------- 0 1.0 4.0 66 113
- 0.89568 1 4 tcp 1040 ------- 0 1.0 4.0 48 77
r 0.89768 1 4 tcp 1040 ------- 0 1.0 4.0 47 75
+ 0.89768 4 1 ack 40 ------- 0 4.0 1.0 47 114
- 0.89768 4 1 ack 40 ------- 0 4.0 1.0 47 114
r 0.9 4 1 ack 40 ------- 0 4.0 1.0 47 114
+ 0.9 1 4 tcp 1040 ------- 0 1.0 4.0 67 115
- 0.904 1 4 tcp 1040 ------- 0 1.0 4.0 49 79
r 0.906 1 4 tcp 1040 ------- 0 1.0 4.0 48 77
+ 0.906 4 1 ack 40 ------- 0 4.0 1.0 48 116
- 0.906 4 1 ack 40 ------- 0 4.0 1.0 48 116
r 0.90832 4 1 ack 40 ------- 0 4.0 1.0 48 116
+ 0.90832 1 4 tcp 1040 ------- 0 1.0 4.0 68 117
- 0.91232 1 4 tcp 1040 ------- 0 1.0 4.0 50 81
r 0.91432 1 4 tcp 1040 ------- 0 1.0 4.0 49 79
+ 0.91432 4 1 ack 40 ------- 0 4.0 1.0 49 118
- 0.91432 4 1 ack 40 ------- 0 4.0 1.0 49 118
r 0.91664 4 1 ack 40 ------- 0 4.0 1.0 49 118
+ 0.91664 1 4 tcp 1040 ------- 0 1.0 4.0 69 119
- 0.92064 1 4 tcp 1040 ------- 0 1.0 4.0 51 83
r 0.92264 1 4 tcp 1040 ------- 0 1.0 4.0 50 81
+ 0.92264 4 1 ack 40 ------- 0 4.0 1.0 50 120
- 0.92264 4 1 ack 40 ------- 0 4.0 1.0 50 120
r 0.92496 4 1 ack 40 ------- 0 4.0 1.0 50 120
+ 0.92496 1 4 tcp 1040 ------- 0 1.0 4.0 70 121
- 0.92896 1 4 tcp 1040 ------- 0 1.0 4.0 52 85
r 0.93096 1 4 tcp 1040 ------- 0 1.0 4.0 51 83
+ 0.93096 4 1 ack 40 ------- 0 4.0 1.0 51 122
- 0.93096 4 1 ack 40 ------- 0 4.0 1.0 51 122
r 0.93328 4 1 ack 40 ------- 0 4.0 1.0 51 122
+ 0.93328 1 4 tcp 1040 ------- 0 1.0 4.0 71 123
- 0.93728 1 4 tcp 1040 ------- 0 1.0 4.0 53 87
r 0.93928 1 4 tcp 1040 ------- 0 1.0 4.0 52 85
+ 0.93928 4 1 ack 40 ------- 0 4.0 1.0 52 124
- 0.93928 4 1 ack 40 ------- 0 4.0 1.0 52 124
r 0.9416 4 1 ack 40 ------- 0 4.0 1.0 52 124
+ 0.9416 1 4 tcp 1040 ------- 0 1.0 4.0 72 125
- 0.9456 1 4 tcp 1040 ------- 0 1.0 4.0 54 89
r 0.9476 1 4 tcp 1040 ------- 0 1.0 4.0 53 87
+ 0.9476 4 1 ack 40 ------- 0 4.0 1.0 53 126
- 0.9476 4 1 ack 40 ------- 0 4.0 1.0 53 126
r 0.94992 4 1 ack 40 ------- 0 4.0 1.0 53 126
+ 0.94992 1 4 tcp 1040 ------- 0 1.0 4.0 73 127
- 0.95392 1 4 tcp 1040 ------- 0 1.0 4.0 55 91
r 0.95592 1 4 tcp 1040 ------- 0 1.0 4.0 54 89
+ 0.95592 4 1 ack 40 ------- 0 4.0 1.0 54 128
- 0.95592 4 1 ack 40 ------- 0 4.0 1.0 54 128
r 0.95824 4 1 ack 40 ------- 0 4.0 1.0 54 128
+ 0.95824 1 4 tcp 1040 ------- 0 1.0 4.0 74 129
- 0.96224 1 4 tcp 1040 ------- 0 1.0 4.0 56 93
r 0.96424 1 4 tcp 1040 ------- 0 1.0 4.0 55 91
+ 0.96424 4 1 ack 40 ------- 0 4.0 1.0 55 130
- 0.96424 4 1 ack 40 ------- 0 4.0 1.0 55 130
r 0.96656 4 1 ack 40 ------- 0 4.0 1.0 55 130
+ 0.96656 1 4 tcp 1040 ------- 0 1.0 4.0 75 131
- 0.97056 1 4 tcp 1040 ------- 0 1.0 4.0 57 95
r 0.97256 1 4 tcp 1040 ------- 0 1.0 4.0 56 93
+ 0.97256 4 1 ack 40 ------- 0 4.0 1.0 56 132
- 0.97256 4 1 ack 40 ------- 0 4.0 1.0 56 132
r 0.97488 4 1 ack 40 ------- 0 4.0 1.0 56 132
+ 0.97488 1 4 tcp 1040 ------- 0 1.0 4.0 76 133
- 0.97888 1 4 tcp 1040 ------- 0 1.0 4.0 58 97
r 0.98088 1 4 tcp 1040 ------- 0 1.0 4.0 57 95
+ 0.98088 4 1 ack 40 ------- 0 4.0 1.0 57 134
- 0.98088 4 1 ack 40 ------- 0 4.0 1.0 57 134
r 0.9832 4 1 ack 40 ------- 0 4.0 1.0 57 134
+ 0.9832 1 4 tcp 1040 ------- 0 1.0 4.0 77 135
- 0.9872 1 4 tcp 1040 ------- 0 1.0 4.0 59 99
r 0.9892 1 4 tcp 1040 ------- 0 1.0 4.0 58 97
+ 0.9892 4 1 ack 40 ------- 0 4.0 1.0 58 136
- 0.9892 4 1 ack 40 ------- 0 4.0 1.0 58 136
r 0.99152 4 1 ack 40 ------- 0 4.0 1.0 58 136
+ 0.99152 1 4 tcp 1040 ------- 0 1.0 4.0 78 137
- 0.99552 1 4 tcp 1040 ------- 0 1.0 4.0 60 101
r 0.99752 1 4 tcp 1040 ------- 0 1.0 4.0 59 99
+ 0.99752 4 1 ack 40 ------- 0 4.0 1.0 59 138
- 0.99752 4 1 ack 40 ------- 0 4.0 1.0 59 138
r 0.99984 4 1 ack 40 ------- 0 4.0 1.0 59 138
+ 0.99984 1 4 tcp 1040 ------- 0 1.0 4.0 79 139
- 1.00384 1 4 tcp 1040 ------- 0 1.0 4.0 61 103
r 1.00584 1 4 tcp 1040 ------- 0 1.0 4.0 60 101
+ 1.00584 4 1 ack 40 ------- 0 4.0 1.0 60 140
- 1.00584 4 1 ack 40 ------- 0 4.0 1.0 60 140
r 1.00816 4 1 ack 40 ------- 0 4.0 1.0 60 140
+ 1.00816 1 4 tcp 1040 ------- 0 1.0 4.0 80 141
- 1.01216 1 4 tcp 1040 ------- 0 1.0 4.0 62 105
r 1.01416 1 4 tcp 1040 ------- 0 1.0 4.0 61 103
+ 1.01416 4 1 ack 40 ------- 0 4.0 1.0 61 142
- 1.01416 4 1 ack 40 ------- 0 4.0 1.0 61 142
r 1.01648 4 1 ack 40 ------- 0 4.0 1.0 61 142
+ 1.01648 1 4 tcp 1040 ------- 0 1.0 4.0 81 143
- 1.02048 1 4 tcp 1040 ------- 0 1.0 4.0 63 107
r 1.02248 1 4 tcp 1040 ------- 0 1.0 4.0 62 105
+ 1.02248 4 1 ack 40 ------- 0 4.0 1.0 62 144
- 1.02248 4 1 ack 40 ------- 0 4.0 1.0 62 144
r 1.0248 4 1 ack 40 ------- 0 4.0 1.0 62 144
+ 1.0248 1 4 tcp 1040 ------- 0 1.0 4.0 82 145
- 1.0288 1 4 tcp 1040 ------- 0 1.0 4.0 64 109
r 1.0308 1 4 tcp 1040 ------- 0 1.0 4.0 63 107
+ 1.0308 4 1 ack 40 ------- 0 4.0 1.0 63 146
- 1.0308 4 1 ack 40 ------- 0 4.0 1.0 63 146
r 1.03312 4 1 ack 40 ------- 0 4.0 1.0 63 146
+ 1.03312 1 4 tcp 1040 ------- 0 1.0 4.0 83 147
- 1.03712 1 4 tcp 1040 ------- 0 1.0 4.0 65 111
r 1.03912 1 4 tcp 1040 ------- 0 1.0 4.0 64 109
+ 1.03912 4 1 ack 40 ------- 0 4.0 1.0 64 148
- 1.03912 4 1 ack 40 ------- 0 4.0 1.0 64 148
r 1.04144 4 1 ack 40 ------- 0 4.0 1.0 64 148
+ 1.04144 1 4 tcp 1040 ------- 0 1.0 4.0 84 149
- 1.04544 1 4 tcp 1040 ------- 0 1.0 4.0 66 113
r 1.04744 1 4 tcp 1040 ------- 0 1.0 4.0 65 111
+ 1.04744 4 1 ack 40 ------- 0 4.0 1.0 65 150
- 1.04744 4 1 ack 40 ------- 0 4.0 1.0 65 150
r 1.04976 4 1 ack 40 ------- 0 4.0 1.0 65 150
+ 1.04976 1 4 tcp 1040 ------- 0 1.0 4.0 85 151
- 1.05376 1 4 tcp 1040 ------- 0 1.0 4.0 67 115
r 1.05576 1 4 tcp 1040 ------- 0 1.0 4.0 66 113
+ 1.05576 4 1 ack 40 ------- 0 4.0 1.0 66 152
- 1.05576 4 1 ack 40 ------- 0 4.0 1.0 66 152
r 1.05808 4 1 ack 40 ------- 0 4.0 1.0 66 152
+ 1.05808 1 4 tcp 1040 ------- 0 1.0 4.0 86 153
- 1.06208 1 4 tcp 1040 ------- 0 1.0 4.0 68 117
r 1.06408 1 4 tcp 1040 ------- 0 1.0 4.0 67 115
+ 1.06408 4 1 ack 40 ------- 0 4.0 1.0 67 154
- 1.06408 4 1 ack 40 ------- 0 4.0 1.0 67 154
r 1.0664 4 1 ack 40 ------- 0 4.0 1.0 67 154
+ 1.0664 1 4 tcp 1040 ------- 0 1.0 4.0 87 155
- 1.0704 1 4 tcp 1040 ------- 0 1.0 4.0 69 119
r 1.0724 1 4 tcp 1040 ------- 0 1.0 4.0 68 117
+ 1.0724 4 1 ack 40 ------- 0 4.0 1.0 68 156
- 1.0724 4 1 ack 40 ------- 0 4.0 1.0 68 156
r 1.07472 4 1 ack 40 ------- 0 4.0 1.0 68 156
+ 1.07472 1 4 tcp 1040 ------- 0 1.0 4.0 88 157
- 1.07872 1 4 tcp 1040 ------- 0 1.0 4.0 70 121
r 1.08072 1 4 tcp 1040 ------- 0 1.0 4.0 69 119
+ 1.08072 4 1 ack 40 ------- 0 4.0 1.0 69 158
- 1.08072 4 1 ack 40 ------- 0 4.0 1.0 69 158
r 1.08304 4 1 ack 40 ------- 0 4.0 1.0 69 158
+ 1.08304 1 4 tcp 1040 ------- 0 1.0 4.0 89 159
- 1.08704 1 4 tcp 1040 ------- 0 1.0 4.0 71 123
r 1.08904 1 4 tcp 1040 ------- 0 1.0 4.0 70 121
+ 1.08904 4 1 ack 40 ------- 0 4.0 1.0 70 160
- 1.08904 4 1 ack 40 ------- 0 4.0 1.0 70 160
r 1.09136 4 1 ack 40 ------- 0 4.0 1.0 70 160
+ 1.09136 1 4 tcp 1040 ------- 0 1.0 4.0 90 161
- 1.09536 1 4 tcp 1040 ------- 0 1.0 4.0 72 125
r 1.09736 1 4 tcp 1040 ------- 0 1.0 4.0 71 123
+ 1.09736 4 1 ack 40 ------- 0 4.0 1.0 71 162
- 1.09736 4 1 ack 40 ------- 0 4.0 1.0 71 162
r 1.09968 4 1 ack 40 ------- 0 4.0 1.0 71 162
+ 1.09968 1 4 tcp 1040 ------- 0 1.0 4.0 91 163
- 1.10368 1 4 tcp 1040 ------- 0 1.0 4.0 73 127
r 1.10568 1 4 tcp 1040 ------- 0 1.0 4.0 72 125
+ 1.10568 4 1 ack 40 ------- 0 4.0 1.0 72 164
- 1.10568 4 1 ack 40 ------- 0 4.0 1.0 72 164
r 1.108 4 1 ack 40 ------- 0 4.0 1.0 72 164
+ 1.108 1 4 tcp 1040 ------- 0 1.0 4.0 92 165
- 1.112 1 4 tcp 1040 ------- 0 1.0 4.0 74 129
r 1.114 1 4 tcp 1040 ------- 0 1.0 4.0 73 127
+ 1.114 4 1 ack 40 ------- 0 4.0 1.0 73 166
- 1.114 4 1 ack 40 ------- 0 4.0 1.0 73 166
r 1.11632 4 1 ack 40 ------- 0 4.0 1.0 73 166
+ 1.11632 1 4 tcp 1040 ------- 0 1.0 4.0 93 167
- 1.12032 1 4 tcp 1040 ------- 0 1.0 4.0 75 131
r 1.12232 1 4 tcp 1040 ------- 0 1.0 4.0 74 129
+ 1.12232 4 1 ack 40 ------- 0 4.0 1.0 74 168
- 1.12232 4 1 ack 40 ------- 0 4.0 1.0 74 168
r 1.12464 4 1 ack 40 ------- 0 4.0 1.0 74 168
+ 1.12464 1 4 tcp 1040 ------- 0 1.0 4.0 94 169
- 1.12864 1 4 tcp 1040 ------- 0 1.0 4.0 76 133
r 1.13064 1 4 tcp 1040 ------- 0 1.0 4.0 75 131
+ 1.13064 4 1 ack 40 ------- 0 4.0 1.0 75 170
- 1.13064 4 1 ack 40 ------- 0 4.0 1.0 75 170
r 1.13296 4 1 ack 40 ------- 0 4.0 1.0 75 170
+ 1.13296 1 4 tcp 1040 ------- 0 1.0 4.0 95 171
- 1.13696 1 4 tcp 1040 ------- 0 1.0 4.0 77 135
r 1.13896 1 4 tcp 1040 ------- 0 1.0 4.0 76 133
+ 1.13896 4 1 ack 40 ------- 0 4.0 1.0 76 172
- 1.13896 4 1 ack 40 ------- 0 4.0 1.0 76 172
r 1.14128 4 1 ack 40 ------- 0 4.0 1.0 76 172
+ 1.14128 1 4 tcp 1040 ------- 0 1.0 4.0 96 173
- 1.14528 1 4 tcp 1040 ------- 0 1.0 4.0 78 137
r 1.14728 1 4 tcp 1040 ------- 0 1.0 4.0 77 135
+ 1.14728 4 1 ack 40 ------- 0 4.0 1.0 77 174
- 1.14728 4 1 ack 40 ------- 0 4.0 1.0 77 174
r 1.1496 4 1 ack 40 ------- 0 4.0 1.0 77 174
+ 1.1496 1 4 tcp 1040 ------- 0 1.0 4.0 97 175
- 1.1536 1 4 tcp 1040 ------- 0 1.0 4.0 79 139
r 1.1556 1 4 tcp 1040 ------- 0 1.0 4.0 78 137
+ 1.1556 4 1 ack 40 ------- 0 4.0 1.0 78 176
- 1.1556 4 1 ack 40 ------- 0 4.0 1.0 78 176
r 1.15792 4 1 ack 40 ------- 0 4.0 1.0 78 176
+ 1.15792 1 4 tcp 1040 ------- 0 1.0 4.0 98 177
- 1.16192 1 4 tcp 1040 ------- 0 1.0 4.0 80 141
r 1.16392 1 4 tcp 1040 ------- 0 1.0 4.0 79 139
+ 1.16392 4 1 ack 40 ------- 0 4.0 1.0 79 178
- 1.16392 4 1 ack 40 ------- 0 4.0 1.0 79 178
r 1.16624 4 1 ack 40 ------- 0 4.0 1.0 79 178
+ 1.16624 1 4 tcp 1040 ------- 0 1.0 4.0 99 179
- 1.17024 1 4 tcp 1040 ------- 0 1.0 4.0 81 143
r 1.17224 1 4 tcp 1040 ------- 0 1.0 4.0 80 141
+ 1.17224 4 1 ack 40 ------- 0 4.0 1.0 80 180
- 1.17224 4 1 ack 40 ------- 0 4.0 1.0 80 180
r 1.17456 4 1 ack 40 ------- 0 4.0 1.0 80 180
+ 1.17456 1 4 tcp 1040 ------- 0 1.0 4.0 100 181
- 1.17856 1 4 tcp 1040 ------- 0 1.0 4.0 82 145
r 1.18056 1 4 tcp 1040 ------- 0 1.0 4.0 81 143
+ 1.18056 4 1 ack 40 ------- 0 4.0 1.0 81 182
- 1.18056 4 1 ack 40 ------- 0 4.0 1.0 81 182
r 1.18288 4 1 ack 40 ------- 0 4.0 1.0 81 182
+ 1.18288 1 4 tcp 1040 ------- 0 1.0 4.0 101 183
- 1.18688 1 4 tcp 1040 ------- 0 1.0 4.0 83 147
r 1.18888 1 4 tcp 1040 ------- 0 1.0 4.0 82 145
+ 1.18888 4 1 ack 40 ------- 0 4.0 1.0 82 184
- 1.18888 4 1 ack 40 ------- 0 4.0 1.0 82 184
r 1.1912 4 1 ack 40 ------- 0 4.0 1.0 82 184
+ 1.1912 1 4 tcp 1040 ------- 0 1.0 4.0 102 185
- 1.1952 1 4 tcp 1040 ------- 0 1.0 4.0 84 149
r 1.1972 1 4 tcp 1040 ------- 0 1.0 4.0 83 147
+ 1.1972 4 1 ack 40 ------- 0 4.0 1.0 83 186
- 1.1972 4 1 ack 40 ------- 0 4.0 1.0 83 186
r 1.19952 4 1 ack 40 ------- 0 4.0 1.0 83 186
+ 1.19952 1 4 tcp 1040 ------- 0 1.0 4.0 103 187
- 1.20352 1 4 tcp 1040 ------- 0 1.0 4.0 85 151
r 1.20552 1 4 tcp 1040 ------- 0 1.0 4.0 84 149
+ 1.20552 4 1 ack 40 ------- 0 4.0 1.0 84 188
- 1.20552 4 1 ack 40 ------- 0 4.0 1.0 84 188
r 1.20784 4 1 ack 40 ------- 0 4.0 1.0 84 188
+ 1.20784 1 4 tcp 1040 ------- 0 1.0 4.0 104 189
- 1.21184 1 4 tcp 1040 ------- 0 1.0 4.0 86 153
r 1.21384 1 4 tcp 1040 ------- 0 1.0 4.0 85 151
+ 1.21384 4 1 ack 40 ------- 0 4.0 1.0 85 190
- 1.21384 4 1 ack 40 ------- 0 4.0 1.0 85 190
r 1.21616 4 1 ack 40 ------- 0 4.0 1.0 85 190
+ 1.21616 1 4 tcp 1040 ------- 0 1.0 4.0 105 191
- 1.22016 1 4 tcp 1040 ------- 0 1.0 4.0 87 155
r 1.22216 1 4 tcp 1040 ------- 0 1.0 4.0 86 153
+ 1.22216 4 1 ack 40 ------- 0 4.0 1.0 86 192
- 1.22216 4 1 ack 40 ------- 0 4.0 1.0 86 192
r 1.22448 4 1 ack 40 ------- 0 4.0 1.0 86 192
+ 1.22448 1 4 tcp 1040 ------- 0 1.0 4.0 106 193
- 1.22848 1 4 tcp 1040 ------- 0 1.0 4.0 88 157
r 1.23048 1 4 tcp 1040 ------- 0 1.0 4.0 87 155
+ 1.23048 4 1 ack 40 ------- 0 4.0 1.0 87 194
- 1.23048 4 1 ack 40 ------- 0 4.0 1.0 87 194
r 1.2328 4 1 ack 40 ------- 0 4.0 1.0 87 194
+ 1.2328 1 4 tcp 1040 ------- 0 1.0 4.0 107 195
- 1.2368 1 4 tcp 1040 ------- 0 1.0 4.0 89 159
r 1.2388 1 4 tcp 1040 ------- 0 1.0 4.0 88 157
+ 1.2388 4 1 ack 40 ------- 0 4.0 1.0 88 196
- 1.2388 4 1 ack 40 ------- 0 4.0 1.0 88 196
r 1.24112 4 1 ack 40 ------- 0 4.0 1.0 88 196
+ 1.24112 1 4 tcp 1040 ------- 0 1.0 4.0 108 197
- 1.24512 1 4 tcp 1040 ------- 0 1.0 4.0 90 161
r 1.24712 1 4 tcp 1040 ------- 0 1.0 4.0 89 159
+ 1.24712 4 1 ack 40 ------- 0 4.0 1.0 89 198
- 1.24712 4 1 ack 40 ------- 0 4.0 1.0 89 198
r 1.24944 4 1 ack 40 ------- 0 4.0 1.0 89 198
+ 1.24944 1 4 tcp 1040 ------- 0 1.0 4.0 109 199
- 1.25344 1 4 tcp 1040 ------- 0 1.0 4.0 91 163
r 1.25544 1 4 tcp 1040 ------- 0 1.0 4.0 90 161
+ 1.25544 4 1 ack 40 ------- 0 4.0 1.0 90 200
- 1.25544 4 1 ack 40 ------- 0 4.0 1.0 90 200
r 1.25776 4 1 ack 40 ------- 0 4.0 1.0 90 200
+ 1.25776 1 4 tcp 1040 ------- 0 1.0 4.0 110 201
- 1.26176 1 4 tcp 1040 ------- 0 1.0 4.0 92 165
r 1.26376 1 4 tcp 1040 ------- 0 1.0 4.0 91 163
+ 1.26376 4 1 ack 40 ------- 0 4.0 1.0 91 202
- 1.26376 4 1 ack 40 ------- 0 4.0 1.0 91 202
r 1.26608 4 1 ack 40 ------- 0 4.0 1.0 91 202
+ 1.26608 1 4 tcp 1040 ------- 0 1.0 4.0 111 203
- 1.27008 1 4 tcp 1040 ------- 0 1.0 4.0 93 167
r 1.27208 1 4 tcp 1040 ------- 0 1.0 4.0 92 165
+ 1.27208 4 1 ack 40 ------- 0 4.0 1.0 92 204
- 1.27208 4 1 ack 40 ------- 0 4.0 1.0 92 204
r 1.2744 4 1 ack 40 ------- 0 4.0 1.0 92 204
+ 1.2744 1 4 tcp 1040 ------- 0 1.0 4.0 112 205
- 1.2784 1 4 tcp 1040 ------- 0 1.0 4.0 94 169
r 1.2804 1 4 tcp 1040 ------- 0 1.0 4.0 93 167
+ 1.2804 4 1 ack 40 ------- 0 4.0 1.0 93 206
- 1.2804 4 1 ack 40 ------- 0 4.0 1.0 93 206
r 1.28272 4 1 ack 40 ------- 0 4.0 1.0 93 206
+ 1.28272 1 4 tcp 1040 ------- 0 1.0 4.0 113 207
- 1.28672 1 4 tcp 1040 ------- 0 1.0 4.0 95 171
r 1.28872 1 4 tcp 1040 ------- 0 1.0 4.0 94 169
+ 1.28872 4 1 ack 40 ------- 0 4.0 1.0 94 208
- 1.28872 4 1 ack 40 ------- 0 4.0 1.0 94 208
r 1.29104 4 1 ack 40 ------- 0 4.0 1.0 94 208
+ 1.29104 1 4 tcp 1040 ------- 0 1.0 4.0 114 209
- 1.29504 1 4 tcp 1040 ------- 0 1.0 4.0 96 173
r 1.29704 1 4 tcp 1040 ------- 0 1.0 4.0 95 171
+ 1.29704 4 1 ack 40 ------- 0 4.0 1.0 95 210
- 1.29704 4 1 ack 40 ------- 0 4.0 1.0 95 210
r 1.29936 4 1 ack 40 ------- 0 4.0 1.0 95 210
+ 1.29936 1 4 tcp 1040 ------- 0 1.0 4.0 115 211
- 1.30336 1 4 tcp 1040 ------- 0 1.0 4.0 97 175
r 1.30536 1 4 tcp 1040 ------- 0 1.0 4.0 96 173
+ 1.30536 4 1 ack 40 ------- 0 4.0 1.0 96 212
- 1.30536 4 1 ack 40 ------- 0 4.0 1.0 96 212
r 1.30768 4 1 ack 40 ------- 0 4.0 1.0 96 212
+ 1.30768 1 4 tcp 1040 ------- 0 1.0 4.0 116 213
- 1.31168 1 4 tcp 1040 ------- 0 1.0 4.0 98 177
r 1.31368 1 4 tcp 1040 ------- 0 1.0 4.0 97 175
+ 1.31368 4 1 ack 40 ------- 0 4.0 1.0 97 214
- 1.31368 4 1 ack 40 ------- 0 4.0 1.0 97 214
r 1.316 4 1 ack 40 ------- 0 4.0 1.0 97 214
+ 1.316 1 4 tcp 1040 ------- 0 1.0 4.0 117 215
- 1.32 1 4 tcp 1040 ------- 0 1.0 4.0 99 179
r 1.322 1 4 tcp 1040 ------- 0 1.0 4.0 98 177
+ 1.322 4 1 ack 40 ------- 0 4.0 1.0 98 216
- 1.322 4 1 ack 40 ------- 0 4.0 1.0 98 216
r 1.32432 4 1 ack 40 ------- 0 4.0 1.0 98 216
+ 1.32432 1 4 tcp 1040 ------- 0 1.0 4.0 118 217
- 1.32832 1 4 tcp 1040 ------- 0 1.0 4.0 100 181
r 1.33032 1 4 tcp 1040 ------- 0 1.0 4.0 99 179
+ 1.33032 4 1 ack 40 ------- 0 4.0 1.0 99 218
- 1.33032 4 1 ack 40 ------- 0 4.0 1.0 99 218
r 1.33264 4 1 ack 40 ------- 0 4.0 1.0 99 218
+ 1.33264 1 4 tcp 1040 ------- 0 1.0 4.0 119 219
- 1.33664 1 4 tcp 1040 ------- 0 1.0 4.0 101 183
r 1.33864 1 4 tcp 1040 ------- 0 1.0 4.0 100 181
+ 1.33864 4 1 ack 40 ------- 0 4.0 1.0 100 220
- 1.33864 4 1 ack 40 ------- 0 4.0 1.0 100 220
r 1.34096 4 1 ack 40 ------- 0 4.0 1.0 100 220
+ 1.34096 1 4 tcp 1040 ------- 0 1.0 4.0 120 221
- 1.34496 1 4 tcp 1040 ------- 0 1.0 4.0 102 185
r 1.34696 1 4 tcp 1040 ------- 0 1.0 4.0 101 183
+ 1.34696 4 1 ack 40 ------- 0 4.0 1.0 101 222
- 1.34696 4 1 ack 40 ------- 0 4.0 1.0 101 222
r 1.34928 4 1 ack 40 ------- 0 4.0 1.0 101 222
+ 1.34928 1 4 tcp 1040 ------- 0 1.0 4.0 121 223
- 1.35328 1 4 tcp 1040 ------- 0 1.0 4.0 103 187
r 1.35528 1 4 tcp 1040 ------- 0 1.0 4.0 102 185
+ 1.35528 4 1 ack 40 ------- 0 4.0 1.0 102 224
- 1.35528 4 1 ack 40 ------- 0 4.0 1.0 102 224
r 1.3576 4 1 ack 40 ------- 0 4.0 1.0 102 224
+ 1.3576 1 4 tcp 1040 ------- 0 1.0 4.0 122 225
- 1.3616 1 4 tcp 1040 ------- 0 1.0 4.0 104 189
r 1.3636 1 4 tcp 1040 ------- 0 1.0 4.0 103 187
+ 1.3636 4 1 ack 40 ------- 0 4.0 1.0 103 226
- 1.3636 4 1 ack 40 ------- 0 4.0 1.0 103 226
r 1.36592 4 1 ack 40 ------- 0 4.0 1.0 103 226
+ 1.36592 1 4 tcp 1040 ------- 0 1.0 4.0 123 227
- 1.36992 1 4 tcp 1040 ------- 0 1.0 4.0 105 191
r 1.37192 1 4 tcp 1040 ------- 0 1.0 4.0 104 189
+ 1.37192 4 1 ack 40 ------- 0 4.0 1.0 104 228