V -t * -v 1.0a5 -a 0
A -t * -n 1 -p 0 -o 0x7fffffff -c 30 -a 1
A -t * -h 1 -m 1073741823 -s 0
n -t * -a 4 -s 4 -S UP -v circle -c black -i black
n -t * -a 0 -s 0 -S UP -v circle -c black -i black
n -t * -a 1 -s 1 -S UP -v circle -c black -i black
n -t * -a 2 -s 2 -S UP -v circle -c black -i black
n -t * -a 3 -s 3 -S UP -v circle -c black -i black
l -t * -s 0 -d 2 -S UP -r 1000000 -D 0.002 -c black
l -t * -s 0 -d 3 -S UP -r 1000000 -D 0.002 -c black
l -t * -s 1 -d 3 -S UP -r 1000000 -D 0.002 -c black
l -t * -s 1 -d 4 -S UP -r 1000000 -D 0.002 -c black
l -t * -s 2 -d 4 -S UP -r 1000000 -D 0.002 -c black
l -t * -s 0 -d 4 -S UP -r 1000000 -D 0.002 -c black -o right
l -t * -s 1 -d 0 -S UP -r 1000000 -D 0.002 -c black -o right-down
l -t * -s 1 -d 2 -S UP -r 1000000 -D 0.002 -c black -o right-up
l -t * -s 3 -d 4 -S UP -r 1000000 -D 0.002 -c black -o left-down
l -t * -s 2 -d 3 -S UP -r 1000000 -D 0.002 -c black -o right-down
+ -t 0.5 -s 1 -d 4 -p tcp -e 40 -c 0 -i 0 -a 0 -x {1.0 4.0 0 ------- null}
- -t 0.5 -s 1 -d 4 -p tcp -e 40 -c 0 -i 0 -a 0 -x {1.0 4.0 0 ------- null}
h -t 0.5 -s 1 -d 4 -p tcp -e 40 -c 0 -i 0 -a 0 -x {1.0 4.0 -1 ------- null}
r -t 0.50232 -s 1 -d 4 -p tcp -e 40 -c 0 -i 0 -a 0 -x {1.0 4.0 0 ------- null}
+ -t 0.50232 -s 4 -d 1 -p ack -e 40 -c 0 -i 1 -a 0 -x {4.0 1.0 0 ------- null}
- -t 0.50232 -s 4 -d 1 -p ack -e 40 -c 0 -i 1 -a 0 -x {4.0 1.0 0 ------- null}
h -t 0.50232 -s 4 -d 1 -p ack -e 40 -c 0 -i 1 -a 0 -x {4.0 1.0 -1 ------- null}
r -t 0.50464 -s 4 -d 1 -p ack -e 40 -c 0 -i 1 -a 0 -x {4.0 1.0 0 ------- null}
+ -t 0.50464 -s 1 -d 4 -p tcp -e 1040 -c 0 -i 2 -a 0 -x {1.0 4.0 1 ------- null}
- -t 0.50464 -s 1 -d 4 -p tcp -e 1040 -c 0 -i 2 -a 0 -x {1.0 4.0 1 ------- null}
h -t 0.50464 -s 1 -d 4 -p tcp -e 1040 -c 0 -i 2 -a 0 -x {1.0 4.0 -1 ------- null}
+ -t 0.50464 -s 1 -d 4 -p tcp -e 1040 -c 0 -i 3 -a 0 -x {1.0 4.0 2 ------- null}
- -t 0.51296 -s 1 -d 4 -p tcp -e 1040 -c 0 -i 3 -a 0 -x {1.0 4.0 2 ------- null}
h -t 0.51296 -s 1 -d 4 -p tcp -e 1040 -c 0 -i 3 -a 0 -x {1.0 4.0 -1 ------- null}
r -t 0.51496 -s 1 -d 4 -p tcp -e 1040 -c 0 -i 2 -a 0 -x {1.0 4.0 1 ------- null}
+ -t 0.51496 -s 4 -d 1 -p ack -e 40 -c 0 -i 4 -a 0 -x {4.0 1.0 1 ------- null}
- -t 0.51496 -s 4 -d 1 -p ack -e 40 -c 0 -i 4 -a 0 -x {4.0 1.0 1 ------- null}
h -t 0.51496 -s 4 -d 1 -p ack -e 40 -c 0 -i 4 -a 0 -x {4.0 1.0 -1 ------- null}
r -t 0.51728 -s 4 -d 1 -p ack -e 40 -c 0 -i 4 -a 0 -x {4.0 1.0 1 ------- null}
+ -t 0.51728 -s 1 -d 4 -p tcp -e 1040 -c 0 -i 5 -a 0 -x {1.0 4.0 3 ------- null}
+ -t 0.51728 -s 1 -d 4 -p tcp -e 1040 -c 0 -i 6 -a 0 -x {1.0 4.0 4 ------- null}
- -t 0.52128 -s 1 -d 4 -p tcp -e 1040 -c 0 -i 5 -a 0 -x {1.0 4.0 3 ------- null}
h -t 0.52128 -s 1 -d 4 -p tcp -e 1040 -c 0 -i 5 -a 0 -x {1.0 4.0 -1 ------- null}
r -t 0.52328 -s 1 -d 4 -p tcp -e 1040 -c 0 -i 3 -a 0 -x {1.0 4.0 2 ------- null}
+ -t 0.52328 -s 4 -d 1 -p ack -e 40 -c 0 -i 7 -a 0 -x {4.0 1.0 2 ------- null}
- -t 0.52328 -s 4 -d 1 -p ack -e 40 -c 0 -i 7 -a 0 -x {4.0 1.0 2 ------- null}
h -t 0.52328 -s 4 -d 1 -p ack -e 40 -c 0 -i 7 -a 0 -x {4.0 1.0 -1 ------- null}
r -t 0.5256 -s 4 -d 1 -p ack -e 40 -c 0 -i 7 -a 0 -x {4.0 1.0 2 ------- null}
+ -t 0.5256 -s 1 -d 4 -p tcp -e 1040 -c 0 -i 8 -a 0 -x {1.0 4.0 5 ------- null}
+ -t 0.5256 -s 1 -d 4 -p tcp -e 1040 -c 0 -i 9 -a 0 -x {1.0 4.0 6 ------- null}
- -t 0.5296 -s 1 -d 4 -p tcp -e 1040 -c 0 -i 6 -a 0 -x {1.0 4.0 4 ------- null}
h -t 0.5296 -s 1 -d 4 -p tcp -e 1040 -c 0 -i 6 -a 0 -x {1.0 4.0 -1 ------- null}
r -t 0.5316 -s 1 -d 4 -p tcp -e 1040 -c 0 -i 5 -a 0 -x {1.0 4.0 3 ------- null}
+ -t 0.5316 -s 4 -d 1 -p ack -e 40 -c 0 -i 10 -a 0 -x {4.0 1.0 3 ------- null}
- -t 0.5316 -s 4 -d 1 -p ack -e 40 -c 0 -i 10 -a 0 -x {4.0 1.0 3 ------- null}
h -t 0.5316 -s 4 -d 1 -p ack -e 40 -c 0 -i 10 -a 0 -x {4.0 1.0 -1 ------- null}
r -t 0.53392 -s 4 -d 1 -p ack -e 40 -c 0 -i 10 -a 0 -x {4.0 1.0 3 ------- null}
+ -t 0.53392 -s 1 -d 4 -p tcp -e 1040 -c 0 -i 11 -a 0 -x {1.0 4.0 7 ------- null}
+ -t 0.53392 -s 1 -d 4 -p tcp -e 1040 -c 0 -i 12 -a 0 -x {1.0 4.0 8 ------- null}
- -t 0.53792 -s 1 -d 4 -p tcp -e 1040 -c 0 -i 8 -a 0 -x {1.0 4.0 5 ------- null}
h -t 0.53792 -s 1 -d 4 -p tcp -e 1040 -c 0 -i 8 -a 0 -x {1.0 4.0 -1 ------- null}
r -t 0.53992 -s 1 -d 4 -p tcp -e 1040 -c 0 -i 6 -a 0 -x {1.0 4.0 4 ------- null}
+ -t 0.53992 -s 4 -d 1 -p ack -e 40 -c 0 -i 13 -a 0 -x {4.0 1.0 4 ------- null}
- -t 0.53992 -s 4 -d 1 -p ack -e 40 -c 0 -i 13 -a 0 -x {4.0 1.0 4 ------- null}
h -t 0.53992 -s 4 -d 1 -p ack -e 40 -c 0 -i 13 -a 0 -x {4.0 1.0 -1 ------- null}
r -t 0.54224 -s 4 -d 1 -p ack -e 40 -c 0 -i 13 -a 0 -x {4.0 1.0 4 ------- null}
+ -t 0.54224 -s 1 -d 4 -p tcp -e 1040 -c 0 -i 14 -a 0 -x {1.0 4.0 9 ------- null}
+ -t 0.54224 -s 1 -d 4 -p tcp -e 1040 -c 0 -i 15 -a 0 -x {1.0 4.0 10 ------- null}
- -t 0.54624 -s 1 -d 4 -p tcp -e 1040 -c 0 -i 9 -a 0 -x {1.0 4.0 6 ------- null}
h -t 0.54624 -s 1 -d 4 -p tcp -e 1040 -c 0 -i 9 -a 0 -x {1.0 4.0 -1 ------- null}
r -t 0.54824 -s 1 -d 4 -p tcp -e 1040 -c 0 -i 8 -a 0 -x {1.0 4.0 5 ------- null}
+ -t 0.54824 -s 4 -d 1 -p ack -e 40 -c 0 -i 16 -a 0 -x {4.0 1.0 5 ------- null}
- -t 0.54824 -s 4 -d 1 -p ack -e 40 -c 0 -i 16 -a 0 -x {4.0 1.0 5 ------- null}
h -t 0.54824 -s 4 -d 1 -p ack -e 40 -c 0 -i 16 -a 0 -x {4.0 1.0 -1 ------- null}
r -t 0.55056 -s 4 -d 1 -p ack -e 40 -c 0 -i 16 -a 0 -x {4.0 1.0 5 ------- null}
+ -t 0.55056 -s 1 -d 4 -p tcp -e 1040 -c 0 -i 17 -a 0 -x {1.0 4.0 11 ------- null}
+ -t 0.55056 -s 1 -d 4 -p tcp -e 1040 -c 0 -i 18 -a 0 -x {1.0 4.0 12 ------- null}
- -t 0.55456 -s 1 -d 4 -p tcp -e 1040 -c 0 -i 11 -a 0 -x {1.0 4.0 7 ------- null}
h -t 0.55456 -s 1 -d 4 -p tcp -e 1040 -c 0 -i 11 -a 0 -x {1.0 4.0 -1 ------- null}
r -t 0.55656 -s 1 -d 4 -p tcp -e 1040 -c 0 -i 9 -a 0 -x {1.0 4.0 6 ------- null}
+ -t 0.55656 -s 4 -d 1 -p ack -e 40 -c 0 -i 19 -a 0 -x {4.0 1.0 6 ------- null}
- -t 0.55656 -s 4 -d 1 -p ack -e 40 -c 0 -i 19 -a 0 -x {4.0 1.0 6 ------- null}
h -t 0.55656 -s 4 -d 1 -p ack -e 40 -c 0 -i 19 -a 0 -x {4.0 1.0 -1 ------- null}
r -t 0.55888 -s 4 -d 1 -p ack -e 40 -c 0 -i 19 -a 0 -x {4.0 1.0 6 ------- null}
+ -t 0.55888 -s 1 -d 4 -p tcp -e 1040 -c 0 -i 20 -a 0 -x {1.0 4.0 13 ------- null}
+ -t 0.55888 -s 1 -d 4 -p tcp -e 1040 -c 0 -i 21 -a 0 -x {1.0 4.0 14 ------- null}
- -t 0.56288 -s 1 -d 4 -p tcp -e 1040 -c 0 -i 12 -a 0 -x {1.0 4.0 8 ------- null}
h -t 0.56288 -s 1 -d 4 -p tcp -e 1040 -c 0 -i 12 -a 0 -x {1.0 4.0 -1 ------- null}
r -t 0.56488 -s 1 -d 4 -p tcp -e 1040 -c 0 -i 11 -a 0 -x {1.0 4.0 7 ------- null}
+ -t 0.56488 -s 4 -d 1 -p ack -e 40 -c 0 -i 22 -a 0 -x {4.0 1.0 7 ------- null}
- -t 0.56488 -s 4 -d 1 -p ack -e 40 -c 0 -i 22 -a 0 -x {4.0 1.0 7 ------- null}
h -t 0.56488 -s 4 -d 1 -p ack -e 40 -c 0 -i 22 -a 0 -x {4.0 1.0 -1 ------- null}
r -t 0.5672 -s 4 -d 1 -p ack -e 40 -c 0 -i 22 -a 0 -x {4.0 1.0 7 ------- null}
+ -t 0.5672 -s 1 -d 4 -p tcp -e 1040 -c 0 -i 23 -a 0 -x {1.0 4.0 15 ------- null}
+ -t 0.5672 -s 1 -d 4 -p tcp -e 1040 -c 0 -i 24 -a 0 -x {1.0 4.0 16 ------- null}
- -t 0.5712 -s 1 -d 4 -p tcp -e 1040 -c 0 -i 14 -a 0 -x {1.0 4.0 9 ------- null}
h -t 0.5712 -s 1 -d 4 -p tcp -e 1040 -c 0 -i 14 -a 0 -x {1.0 4.0 -1 ------- null}
r -t 0.5732 -s 1 -d 4 -p tcp -e 1040 -c 0 -i 12 -a 0 -x {1.0 4.0 8 ------- null}
+ -t 0.5732 -s 4 -d 1 -p ack -e 40 -c 0 -i 25 -a 0 -x {4.0 1.0 8 ------- null}
- -t 0.5732 -s 4 -d 1 -p ack -e 40 -c 0 -i 25 -a 0 -x {4.0 1.0 8 ------- null}
h -t 0.5732 -s 4 -d 1 -p ack -e 40 -c 0 -i 25 -a 0 -x {4.0 1.0 -1 ------- null}
r -t 0.57552 -s 4 -d 1 -p ack -e 40 -c 0 -i 25 -a 0 -x {4.0 1.0 8 ------- null}
+ -t 0.57552 -s 1 -d 4 -p tcp -e 1040 -c 0 -i 26 -a 0 -x {1.0 4.0 17 ------- null}
+ -t 0.57552 -s 1 -d 4 -p tcp -e 1040 -c 0 -i 27 -a 0 -x {1.0 4.0 18 ------- null}
- -t 0.57952 -s 1 -d 4 -p tcp -e 1040 -c 0 -i 15 -a 0 -x {1.0 4.0 10 ------- null}
h -t 0.57952 -s 1 -d 4 -p tcp -e 1040 -c 0 -i 15 -a 0 -x {1.0 4.0 -1 ------- null}
r -t 0.58152 -s 1 -d 4 -p tcp -e 1040 -c 0 -i 14 -a 0 -x {1.0 4.0 9 ------- null}
+ -t 0.58152 -s 4 -d 1 -p ack -e 40 -c 0 -i 28 -a 0 -x {4.0 1.0 9 ------- null}
- -t 0.58152 -s 4 -d 1 -p ack -e 40 -c 0 -i 28 -a 0 -x {4.0 1.0 9 ------- null}
h -t 0.58152 -s 4 -d 1 -p ack -e 40 -c 0 -i 28 -a 0 -x {4.0 1.0 -1 ------- null}
r -t 0.58384 -s 4 -d 1 -p ack -e 40 -c 0 -i 28 -a 0 -x {4.0 1.0 9 ------- null}
+ -t 0.58384 -s 1 -d 4 -p tcp -e 1040 -c 0 -i 29 -a 0 -x {1.0 4.0 19 ------- null}
+ -t 0.58384 -s 1 -d 4 -p tcp -e 1040 -c 0 -i 30 -a 0 -x {1.0 4.0 20 ------- null}
- -t 0.58784 -s 1 -d 4 -p tcp -e 1040 -c 0 -i 17 -a 0 -x {1.0 4.0 11 ------- null}
h -t 0.58784 -s 1 -d 4 -p tcp -e 1040 -c 0 -i 17 -a 0 -x {1.0 4.0 -1 ------- null}
r -t 0.58984 -s 1 -d 4 -p tcp -e 1040 -c 0 -i 15 -a 0 -x {1.0 4.0 10 ------- null}
+ -t 0.58984 -s 4 -d 1 -p ack -e 40 -c 0 -i 31 -a 0 -x {4.0 1.0 10 ------- null}
- -t 0.58984 -s 4 -d 1 -p ack -e 40 -c 0 -i 31 -a 0 -x {4.0 1.0 10 ------- null}
h -t 0.58984 -s 4 -d 1 -p ack -e 40 -c 0 -i 31 -a 0 -x {4.0 1.0 -1 ------- null}
r -t 0.59216 -s 4 -d 1 -p ack -e 40 -c 0 -i 31 -a 0 -x {4.0 1.0 10 ------- null}
+ -t 0.59216 -s 1 -d 4 -p tcp -e 1040 -c 0 -i 32 -a 0 -x {1.0 4.0 21 ------- null}
+ -t 0.59216 -s 1 -d 4 -p tcp -e 1040 -c 0 -i 33 -a 0 -x {1.0 4.0 22 ------- null}
- -t 0.59616 -s 1 -d 4 -p tcp -e 1040 -c 0 -i 18 -a 0 -x {1.0 4.0 12 ------- null}
h -t 0.59616 -s 1 -d 4 -p tcp -e 1040 -c 0 -i 18 -a 0 -x {1.0 4.0 -1 ------- null}
r -t 0.59816 -s 1 -d 4 -p tcp -e 1040 -c 0 -i 17 -a 0 -x {1.0 4.0 11 ------- null}
+ -t 0.59816 -s 4 -d 1 -p ack -e 40 -c 0 -i 34 -a 0 -x {4.0 1.0 11 ------- null}
- -t 0.59816 -s 4 -d 1 -p ack -e 40 -c 0 -i 34 -a 0 -x {4.0 1.0 11 ------- null}
h -t 0.59816 -s 4 -d 1 -p ack -e 40 -c 0 -i 34 -a 0 -x {4.0 1.0 -1 ------- null}
r -t 0.60048 -s 4 -d 1 -p ack -e 40 -c 0 -i 34 -a 0 -x {4.0 1.0 11 ------- null}
+ -t 0.60048 -s 1 -d 4 -p tcp -e 1040 -c 0 -i 35 -a 0 -x {1.0 4.0 23 ------- null}
+ -t 0.60048 -s 1 -d 4 -p tcp -e 1040 -c 0 -i 36 -a 0 -x {1.0 4.0 24 ------- null}
- -t 0.60448 -s 1 -d 4 -p tcp -e 1040 -c 0 -i 20 -a 0 -x {1.0 4.0 13 ------- null}
h -t 0.60448 -s 1 -d 4 -p tcp -e 1040 -c 0 -i 20 -a 0 -x {1.0 4.0 -1 ------- null}
r -t 0.60648 -s 1 -d 4 -p tcp -e 1040 -c 0 -i 18 -a 0 -x {1.0 4.0 12 ------- null}
+ -t 0.60648 -s 4 -d 1 -p ack -e 40 -c 0 -i 37 -a 0 -x {4.0 1.0 12 ------- null}
- -t 0.60648 -s 4 -d 1 -p ack -e 40 -c 0 -i 37 -a 0 -x {4.0 1.0 12 ------- null}
h -t 0.60648 -s 4 -d 1 -p ack -e 40 -c 0 -i 37 -a 0 -x {4.0 1.0 -1 ------- null}
r -t 0.6088 -s 4 -d 1 -p ack -e 40 -c 0 -i 37 -a 0 -x {4.0 1.0 12 ------- null}
+ -t 0.6088 -s 1 -d 4 -p tcp -e 1040 -c 0 -i 38 -a 0 -x {1.0 4.0 25 ------- null}
+ -t 0.6088 -s 1 -d 4 -p tcp -e 1040 -c 0 -i 39 -a 0 -x {1.0 4.0 26 ------- null}
- -t 0.6128 -s 1 -d 4 -p tcp -e 1040 -c 0 -i 21 -a 0 -x {1.0 4.0 14 ------- null}
h -t 0.6128 -s 1 -d 4 -p tcp -e 1040 -c 0 -i 21 -a 0 -x {1.0 4.0 -1 ------- null}
r -t 0.6148 -s 1 -d 4 -p tcp -e 1040 -c 0 -i 20 -a 0 -x {1.0 4.0 13 ------- null}
+ -t 0.6148 -s 4 -d 1 -p ack -e 40 -c 0 -i 40 -a 0 -x {4.0 1.0 13 ------- null}
- -t 0.6148 -s 4 -d 1 -p ack -e 40 -c 0 -i 40 -a 0 -x {4.0 1.0 13 ------- null}
h -t 0.6148 -s 4 -d 1 -p ack -e 40 -c 0 -i 40 -a 0 -x {4.0 1.0 -1 ------- null}
r -t 0.61712 -s 4 -d 1 -p ack -e 40 -c 0 -i 40 -a 0 -x {4.0 1.0 13 ------- null}
+ -t 0.61712 -s 1 -d 4 -p tcp -e 1040 -c 0 -i 41 -a 0 -x {1.0 4.0 27 ------- null}
+ -t 0.61712 -s 1 -d 4 -p tcp -e 1040 -c 0 -i 42 -a 0 -x {1.0 4.0 28 ------- null}
- -t 0.62112 -s 1 -d 4 -p tcp -e 1040 -c 0 -i 23 -a 0 -x {1.0 4.0 15 ------- null}
h -t 0.62112 -s 1 -d 4 -p tcp -e 1040 -c 0 -i 23 -a 0 -x {1.0 4.0 -1 ------- null}
r -t 0.62312 -s 1 -d 4 -p tcp -e 1040 -c 0 -i 21 -a 0 -x {1.0 4.0 14 ------- null}
+ -t 0.62312 -s 4 -d 1 -p ack -e 40 -c 0 -i 43 -a 0 -x {4.0 1.0 14 ------- null}
- -t 0.62312 -s 4 -d 1 -p ack -e 40 -c 0 -i 43 -a 0 -x {4.0 1.0 14 ------- null}
h -t 0.62312 -s 4 -d 1 -p ack -e 40 -c 0 -i 43 -a 0 -x {4.0 1.0 -1 ------- null}
r -t 0.62544 -s 4 -d 1 -p ack -e 40 -c 0 -i 43 -a 0 -x {4.0 1.0 14 ------- null}
+ -t 0.62544 -s 1 -d 4 -p tcp -e 1040 -c 0 -i 44 -a 0 -x {1.0 4.0 29 ------- null}
+ -t 0.62544 -s 1 -d 4 -p tcp -e 1040 -c 0 -i 45 -a 0 -x {1.0 4.0 30 ------- null}
- -t 0.62944 -s 1 -d 4 -p tcp -e 1040 -c 0 -i 24 -a 0 -x {1.0 4.0 16 ------- null}
h -t 0.62944 -s 1 -d 4 -p tcp -e 1040 -c 0 -i 24 -a 0 -x {1.0 4.0 -1 ------- null}
r -t 0.63144 -s 1 -d 4 -p tcp -e 1040 -c 0 -i 23 -a 0 -x {1.0 4.0 15 ------- null}
+ -t 0.63144 -s 4 -d 1 -p ack -e 40 -c 0 -i 46 -a 0 -x {4.0 1.0 15 ------- null}
- -t 0.63144 -s 4 -d 1 -p ack -e 40 -c 0 -i 46 -a 0 -x {4.0 1.0 15 ------- null}
h -t 0.63144 -s 4 -d 1 -p ack -e 40 -c 0 -i 46 -a 0 -x {4.0 1.0 -1 ------- null}
r -t 0.63376 -s 4 -d 1 -p ack -e 40 -c 0 -i 46 -a 0 -x {4.0 1.0 15 ------- null}
+ -t 0.63376 -s 1 -d 4 -p tcp -e 1040 -c 0 -i 47 -a 0 -x {1.0 4.0 31 ------- null}
+ -t 0.63376 -s 1 -d 4 -p tcp -e 1040 -c 0 -i 48 -a 0 -x {1.0 4.0 32 ------- null}
- -t 0.63776 -s 1 -d 4 -p tcp -e 1040 -c 0 -i 26 -a 0 -x {1.0 4.0 17 ------- null}
h -t 0.63776 -s 1 -d 4 -p tcp -e 1040 -c 0 -i 26 -a 0 -x {1.0 4.0 -1 ------- null}
r -t 0.63976 -s 1 -d 4 -p tcp -e 1040 -c 0 -i 24 -a 0 -x {1.0 4.0 16 ------- null}
+ -t 0.63976 -s 4 -d 1 -p ack -e 40 -c 0 -i 49 -a 0 -x {4.0 1.0 16 ------- null}
- -t 0.63976 -s 4 -d 1 -p ack -e 40 -c 0 -i 49 -a 0 -x {4.0 1.0 16 ------- null}
h -t 0.63976 -s 4 -d 1 -p ack -e 40 -c 0 -i 49 -a 0 -x {4.0 1.0 -1 ------- null}
r -t 0.64208 -s 4 -d 1 -p ack -e 40 -c 0 -i 49 -a 0 -x {4.0 1.0 16 ------- null}
+ -t 0.64208 -s 1 -d 4 -p tcp -e 1040 -c 0 -i 50 -a 0 -x {1.0 4.0 33 ------- null}
+ -t 0.64208 -s 1 -d 4 -p tcp -e 1040 -c 0 -i 51 -a 0 -x {1.0 4.0 34 ------- null}
- -t 0.64608 -s 1 -d 4 -p tcp -e 1040 -c 0 -i 27 -a 0 -x {1.0 4.0 18 ------- null}
h -t 0.64608 -s 1 -d 4 -p tcp -e 1040 -c 0 -i 27 -a 0 -x {1.0 4.0 -1 ------- null}
r -t 0.64808 -s 1 -d 4 -p tcp -e 1040 -c 0 -i 26 -a 0 -x {1.0 4.0 17 ------- null}
+ -t 0.64808 -s 4 -d 1 -p ack -e 40 -c 0 -i 52 -a 0 -x {4.0 1.0 17 ------- null}
- -t 0.64808 -s 4 -d 1 -p ack -e 40 -c 0 -i 52 -a 0 -x {4.0 1.0 17 ------- null}
h -t 0.64808 -s 4 -d 1 -p ack -e 40 -c 0 -i 52 -a 0 -x {4.0 1.0 -1 ------- null}
r -t 0.6504 -s 4 -d 1 -p ack -e 40 -c 0 -i 52 -a 0 -x {4.0 1.0 17 ------- null}
+ -t 0.6504 -s 1 -d 4 -p tcp -e 1040 -c 0 -i 53 -a 0 -x {1.0 4.0 35 ------- null}
+ -t 0.6504 -s 1 -d 4 -p tcp -e 1040 -c 0 -i 54 -a 0 -x {1.0 4.0 36 ------- null}
- -t 0.6544 -s 1 -d 4 -p tcp -e 1040 -c 0 -i 29 -a 0 -x {1.0 4.0 19 ------- null}
h -t 0.6544 -s 1 -d 4 -p tcp -e 1040 -c 0 -i 29 -a 0 -x {1.0 4.0 -1 ------- null}
r -t 0.6564 -s 1 -d 4 -p tcp -e 1040 -c 0 -i 27 -a 0 -x {1.0 4.0 18 ------- null}
+ -t 0.6564 -s 4 -d 1 -p ack -e 40 -c 0 -i 55 -a 0 -x {4.0 1.0 18 ------- null}
- -t 0.6564 -s 4 -d 1 -p ack -e 40 -c 0 -i 55 -a 0 -x {4.0 1.0 18 ------- null}
h -t 0.6564 -s 4 -d 1 -p ack -e 40 -c 0 -i 55 -a 0 -x {4.0 1.0 -1 ------- null}
r -t 0.65872 -s 4 -d 1 -p ack -e 40 -c 0 -i 55 -a 0 -x {4.0 1.0 18 ------- null}
+ -t 0.65872 -s 1 -d 4 -p tcp -e 1040 -c 0 -i 56 -a 0 -x {1.0 4.0 37 ------- null}
+ -t 0.65872 -s 1 -d 4 -p tcp -e 1040 -c 0 -i 57 -a 0 -x {1.0 4.0 38 ------- null}
- -t 0.66272 -s 1 -d 4 -p tcp -e 1040 -c 0 -i 30 -a 0 -x {1.0 4.0 20 ------- null}
h -t 0.66272 -s 1 -d 4 -p tcp -e 1040 -c 0 -i 30 -a 0 -x {1.0 4.0 -1 ------- null}
r -t 0.66472 -s 1 -d 4 -p tcp -e 1040 -c 0 -i 29 -a 0 -x {1.0 4.0 19 ------- null}
+ -t 0.66472 -s 4 -d 1 -p ack -e 40 -c 0 -i 58 -a 0 -x {4.0 1.0 19 ------- null}
- -t 0.66472 -s 4 -d 1 -p ack -e 40 -c 0 -i 58 -a 0 -x {4.0 1.0 19 ------- null}
h -t 0.66472 -s 4 -d 1 -p ack -e 40 -c 0 -i 58 -a 0 -x {4.0 1.0 -1 ------- null}
r -t 0.66704 -s 4 -d 1 -p ack -e 40 -c 0 -i 58 -a 0 -x {4.0 1.0 19 ------- null}
+ -t 0.66704 -s 1 -d 4 -p tcp -e 1040 -c 0 -i 59 -a 0 -x {1.0 4.0 39 ------- null}
- -t 0.67104 -s 1 -d 4 -p tcp -e 1040 -c 0 -i 32 -a 0 -x {1.0 4.0 21 ------- null}
h -t 0.67104 -s 1 -d 4 -p tcp -e 1040 -c 0 -i 32 -a 0 -x {1.0 4.0 -1 ------- null}
r -t 0.67304 -s 1 -d 4 -p tcp -e 1040 -c 0 -i 30 -a 0 -x {1.0 4.0 20 ------- null}
+ -t 0.67304 -s 4 -d 1 -p ack -e 40 -c 0 -i 60 -a 0 -x {4.0 1.0 20 ------- null}
- -t 0.67304 -s 4 -d 1 -p ack -e 40 -c 0 -i 60 -a 0 -x {4.0 1.0 20 ------- null}
h -t 0.67304 -s 4 -d 1 -p ack -e 40 -c 0 -i 60 -a 0 -x {4.0 1.0 -1 ------- null}
r -t 0.67536 -s 4 -d 1 -p ack -e 40 -c 0 -i 60 -a 0 -x {4.0 1.0 20 ------- null}
+ -t 0.67536 -s 1 -d 4 -p tcp -e 1040 -c 0 -i 61 -a 0 -x {1.0 4.0 40 ------- null}
- -t 0.67936 -s 1 -d 4 -p tcp -e 1040 -c 0 -i 33 -a 0 -x {1.0 4.0 22 ------- null}
h -t 0.67936 -s 1 -d 4 -p tcp -e 1040 -c 0 -i 33 -a 0 -x {1.0 4.0 -1 ------- null}
r -t 0.68136 -s 1 -d 4 -p tcp -e 1040 -c 0 -i 32 -a 0 -x {1.0 4.0 21 ------- null}
+ -t 0.68136 -s 4 -d 1 -p ack -e 40 -c 0 -i 62 -a 0 -x {4.0 1.0 21 ------- null}
- -t 0.68136 -s 4 -d 1 -p ack -e 40 -c 0 -i 62 -a 0 -x {4.0 1.0 21 ------- null}
h -t 0.68136 -s 4 -d 1 -p ack -e 40 -c 0 -i 62 -a 0 -x {4.0 1.0 -1 ------- null}
r -t 0.68368 -s 4 -d 1 -p ack -e 40 -c 0 -i 62 -a 0 -x {4.0 1.0 21 ------- null}
+ -t 0.68368 -s 1 -d 4 -p tcp -e 1040 -c 0 -i 63 -a 0 -x {1.0 4.0 41 ------- null}
- -t 0.68768 -s 1 -d 4 -p tcp -e 1040 -c 0 -i 35 -a 0 -x {1.0 4.0 23 ------- null}
h -t 0.68768 -s 1 -d 4 -p tcp -e 1040 -c 0 -i 35 -a 0 -x {1.0 4.0 -1 ------- null}
r -t 0.68968 -s 1 -d 4 -p tcp -e 1040 -c 0 -i 33 -a 0 -x {1.0 4.0 22 ------- null}
+ -t 0.68968 -s 4 -d 1 -p ack -e 40 -c 0 -i 64 -a 0 -x {4.0 1.0 22 ------- null}
- -t 0.68968 -s 4 -d 1 -p ack -e 40 -c 0 -i 64 -a 0 -x {4.0 1.0 22 ------- null}
h -t 0.68968 -s 4 -d 1 -p ack -e 40 -c 0 -i 64 -a 0 -x {4.0 1.0 -1 ------- null}
r -t 0.692 -s 4 -d 1 -p ack -e 40 -c 0 -i 64 -a 0 -x {4.0 1.0 22 ------- null}
+ -t 0.692 -s 1 -d 4 -p tcp -e 1040 -c 0 -i 65 -a 0 -x {1.0 4.0 42 ------- null}
- -t 0.696 -s 1 -d 4 -p tcp -e 1040 -c 0 -i 36 -a 0 -x {1.0 4.0 24 ------- null}
h -t 0.696 -s 1 -d 4 -p tcp -e 1040 -c 0 -i 36 -a 0 -x {1.0 4.0 -1 ------- null}
r -t 0.698 -s 1 -d 4 -p tcp -e 1040 -c 0 -i 35 -a 0 -x {1.0 4.0 23 ------- null}
+ -t 0.698 -s 4 -d 1 -p ack -e 40 -c 0 -i 66 -a 0 -x {4.0 1.0 23 ------- null}
- -t 0.698 -s 4 -d 1 -p ack -e 40 -c 0 -i 66 -a 0 -x {4.0 1.0 23 ------- null}
h -t 0.698 -s 4 -d 1 -p ack -e 40 -c 0 -i 66 -a 0 -x {4.0 1.0 -1 ------- null}
r -t 0.70032 -s 4 -d 1 -p ack -e 40 -c 0 -i 66 -a 0 -x {4.0 1.0 23 ------- null}
+ -t 0.70032 -s 1 -d 4 -p tcp -e 1040 -c 0 -i 67 -a 0 -x {1.0 4.0 43 ------- null}
- -t 0.70432 -s 1 -d 4 -p tcp -e 1040 -c 0 -i 38 -a 0 -x {1.0 4.0 25 ------- null}
h -t 0.70432 -s 1 -d 4 -p tcp -e 1040 -c 0 -i 38 -a 0 -x {1.0 4.0 -1 ------- null}
r -t 0.70632 -s 1 -d 4 -p tcp -e 1040 -c 0 -i 36 -a 0 -x {1.0 4.0 24 ------- null}
+ -t 0.70632 -s 4 -d 1 -p ack -e 40 -c 0 -i 68 -a 0 -x {4.0 1.0 24 ------- null}
- -t 0.70632 -s 4 -d 1 -p ack -e 40 -c 0 -i 68 -a 0 -x {4.0 1.0 24 ------- null}
h -t 0.70632 -s 4 -d 1 -p ack -e 40 -c 0 -i 68 -a 0 -x {4.0 1.0 -1 ------- null}
r -t 0.70864 -s 4 -d 1 -p ack -e 40 -c 0 -i 68 -a 0 -x {4.0 1.0 24 ------- null}
+ -t 0.70864 -s 1 -d 4 -p tcp -e 1040 -c 0 -i 69 -a 0 -x {1.0 4.0 44 ------- null}
- -t 0.71264 -s 1 -d 4 -p tcp -e 1040 -c 0 -i 39 -a 0 -x {1.0 4.0 26 ------- null}
h -t 0.71264 -s 1 -d 4 -p tcp -e 1040 -c 0 -i 39 -a 0 -x {1.0 4.0 -1 ------- null}
r -t 0.71464 -s 1 -d 4 -p tcp -e 1040 -c 0 -i 38 -a 0 -x {1.0 4.0 25 ------- null}
+ -t 0.71464 -s 4 -d 1 -p ack -e 40 -c 0 -i 70 -a 0 -x {4.0 1.0 25 ------- null}
- -t 0.71464 -s 4 -d 1 -p ack -e 40 -c 0 -i 70 -a 0 -x {4.0 1.0 25 ------- null}
h -t 0.71464 -s 4 -d 1 -p ack -e 40 -c 0 -i 70 -a 0 -x {4.0 1.0 -1 ------- null}
r -t 0.71696 -s 4 -d 1 -p ack -e 40 -c 0 -i 70 -a 0 -x {4.0 1.0 25 ------- null}
+ -t 0.71696 -s 1 -d 4 -p tcp -e 1040 -c 0 -i 71 -a 0 -x {1.0 4.0 45 ------- null}
- -t 0.72096 -s 1 -d 4 -p tcp -e 1040 -c 0 -i 41 -a 0 -x {1.0 4.0 27 ------- null}
h -t 0.72096 -s 1 -d 4 -p tcp -e 1040 -c 0 -i 41 -a 0 -x {1.0 4.0 -1 ------- null}
r -t 0.72296 -s 1 -d 4 -p tcp -e 1040 -c 0 -i 39 -a 0 -x {1.0 4.0 26 ------- null}
+ -t 0.72296 -s 4 -d 1 -p ack -e 40 -c 0 -i 72 -a 0 -x {4.0 1.0 26 ------- null}
- -t 0.72296 -s 4 -d 1 -p ack -e 40 -c 0 -i 72 -a 0 -x {4.0 1.0 26 ------- null}
h -t 0.72296 -s 4 -d 1 -p ack -e 40 -c 0 -i 72 -a 0 -x {4.0 1.0 -1 ------- null}
r -t 0.72528 -s 4 -d 1 -p ack -e 40 -c 0 -i 72 -a 0 -x {4.0 1.0 26 ------- null}
+ -t 0.72528 -s 1 -d 4 -p tcp -e 1040 -c 0 -i 73 -a 0 -x {1.0 4.0 46 ------- null}
- -t 0.72928 -s 1 -d 4 -p tcp -e 1040 -c 0 -i 42 -a 0 -x {1.0 4.0 28 ------- null}
h -t 0.72928 -s 1 -d 4 -p tcp -e 1040 -c 0 -i 42 -a 0 -x {1.0 4.0 -1 ------- null}
r -t 0.73128 -s 1 -d 4 -p tcp -e 1040 -c 0 -i 41 -a 0 -x {1.0 4.0 27 ------- null}
+ -t 0.73128 -s 4 -d 1 -p ack -e 40 -c 0 -i 74 -a 0 -x {4.0 1.0 27 ------- null}
- -t 0.73128 -s 4 -d 1 -p ack -e 40 -c 0 -i 74 -a 0 -x {4.0 1.0 27 ------- null}
h -t 0.73128 -s 4 -d 1 -p ack -e 40 -c 0 -i 74 -a 0 -x {4.0 1.0 -1 ------- null}
r -t 0.7336 -s 4 -d 1 -p ack -e 40 -c 0 -i 74 -a 0 -x {4.0 1.0 27 ------- null}
+ -t 0.7336 -s 1 -d 4 -p tcp -e 1040 -c 0 -i 75 -a 0 -x {1.0 4.0 47 ------- null}
- -t 0.7376 -s 1 -d 4 -p tcp -e 1040 -c 0 -i 44 -a 0 -x {1.0 4.0 29 ------- null}
h -t 0.7376 -s 1 -d 4 -p tcp -e 1040 -c 0 -i 44 -a 0 -x {1.0 4.0 -1 ------- null}
r -t 0.7396 -s 1 -d 4 -p tcp -e 1040 -c 0 -i 42 -a 0 -x {1.0 4.0 28 ------- null}
+ -t 0.7396 -s 4 -d 1 -p ack -e 40 -c 0 -i 76 -a 0 -x {4.0 1.0 28 ------- null}
- -t 0.7396 -s 4 -d 1 -p ack -e 40 -c 0 -i 76 -a 0 -x {4.0 1.0 28 ------- null}
h -t 0.7396 -s 4 -d 1 -p ack -e 40 -c 0 -i 76 -a 0 -x {4.0 1.0 -1 ------- null}
r -t 0.74192 -s 4 -d 1 -p ack -e 40 -c 0 -i 76 -a 0 -x {4.0 1.0 28 ------- null}
+ -t 0.74192 -s 1 -d 4 -p tcp -e 1040 -c 0 -i 77 -a 0 -x {1.0 4.0 48 ------- null}
- -t 0.74592 -s 1 -d 4 -p tcp -e 1040 -c 0 -i 45 -a 0 -x {1.0 4.0 30 ------- null}
h -t 0.74592 -s 1 -d 4 -p tcp -e 1040 -c 0 -i 45 -a 0 -x {1.0 4.0 -1 ------- null}
r -t 0.74792 -s 1 -d 4 -p tcp -e 1040 -c 0 -i 44 -a 0 -x {1.0 4.0 29 ------- null}
+ -t 0.74792 -s 4 -d 1 -p ack -e 40 -c 0 -i 78 -a 0 -x {4.0 1.0 29 ------- null}
- -t 0.74792 -s 4 -d 1 -p ack -e 40 -c 0 -i 78 -a 0 -x {4.0 1.0 29 ------- null}
h -t 0.74792 -s 4 -d 1 -p ack -e 40 -c 0 -i 78 -a 0 -x {4.0 1.0 -1 ------- null}
r -t 0.75024 -s 4 -d 1 -p ack -e 40 -c 0 -i 78 -a 0 -x {4.0 1.0 29 ------- null}
+ -t 0.75024 -s 1 -d 4 -p tcp -e 1040 -c 0 -i 79 -a 0 -x {1.0 4.0 49 ------- null}
- -t 0.75424 -s 1 -d 4 -p tcp -e 1040 -c 0 -i 47 -a 0 -x {1.0 4.0 31 ------- null}
h -t 0.75424 -s 1 -d 4 -p tcp -e 1040 -c 0 -i 47 -a 0 -x {1.0 4.0 -1 ------- null}
r -t 0.75624 -s 1 -d 4 -p tcp -e 1040 -c 0 -i 45 -a 0 -x {1.0 4.0 30 ------- null}
+ -t 0.75624 -s 4 -d 1 -p ack -e 40 -c 0 -i 80 -a 0 -x {4.0 1.0 30 ------- null}
- -t 0.75624 -s 4 -d 1 -p ack -e 40 -c 0 -i 80 -a 0 -x {4.0 1.0 30 ------- null}
h -t 0.75624 -s 4 -d 1 -p ack -e 40 -c 0 -i 80 -a 0 -x {4.0 1.0 -1 ------- null}
r -t 0.75856 -s 4 -d 1 -p ack -e 40 -c 0 -i 80 -a 0 -x {4.0 1.0 30 ------- null}
+ -t 0.75856 -s 1 -d 4 -p tcp -e 1040 -c 0 -i 81 -a 0 -x {1.0 4.0 50 ------- null}
- -t 0.76256 -s 1 -d 4 -p tcp -e 1040 -c 0 -i 48 -a 0 -x {1.0 4.0 32 ------- null}
h -t 0.76256 -s 1 -d 4 -p tcp -e 1040 -c 0 -i 48 -a 0 -x {1.0 4.0 -1 ------- null}
r -t 0.76456 -s 1 -d 4 -p tcp -e 1040 -c 0 -i 47 -a 0 -x {1.0 4.0 31 ------- null}
+ -t 0.76456 -s 4 -d 1 -p ack -e 40 -c 0 -i 82 -a 0 -x {4.0 1.0 31 ------- null}
- -t 0.76456 -s 4 -d 1 -p ack -e 40 -c 0 -i 82 -a 0 -x {4.0 1.0 31 ------- null}
h -t 0.76456 -s 4 -d 1 -p ack -e 40 -c 0 -i 82 -a 0 -x {4.0 1.0 -1 ------- null}
r -t 0.76688 -s 4 -d 1 -p ack -e 40 -c 0 -i 82 -a 0 -x {4.0 1.0 31 ------- null}
+ -t 0.76688 -s 1 -d 4 -p tcp -e 1040 -c 0 -i 83 -a 0 -x {1.0 4.0 51 ------- null}
- -t 0.77088 -s 1 -d 4 -p tcp -e 1040 -c 0 -i 50 -a 0 -x {1.0 4.0 33 ------- null}
h -t 0.77088 -s 1 -d 4 -p tcp -e 1040 -c 0 -i 50 -a 0 -x {1.0 4.0 -1 ------- null}
r -t 0.77288 -s 1 -d 4 -p tcp -e 1040 -c 0 -i 48 -a 0 -x {1.0 4.0 32 ------- null}
+ -t 0.77288 -s 4 -d 1 -p ack -e 40 -c 0 -i 84 -a 0 -x {4.0 1.0 32 ------- null}
- -t 0.77288 -s 4 -d 1 -p ack -e 40 -c 0 -i 84 -a 0 -x {4.0 1.0 32 ------- null}
h -t 0.77288 -s 4 -d 1 -p ack -e 40 -c 0 -i 84 -a 0 -x {4.0 1.0 -1 ------- null}
r -t 0.7752 -s 4 -d 1 -p ack -e 40 -c 0 -i 84 -a 0 -x {4.0 1.0 32 ------- null}
+ -t 0.7752 -s 1 -d 4 -p tcp -e 1040 -c 0 -i 85 -a 0 -x {1.0 4.0 52 ------- null}
- -t 0.7792 -s 1 -d 4 -p tcp -e 1040 -c 0 -i 51 -a 0 -x {1.0 4.0 34 ------- null}
h -t 0.7792 -s 1 -d 4 -p tcp -e 1040 -c 0 -i 51 -a 0 -x {1.0 4.0 -1 ------- null}
r -t 0.7812 -s 1 -d 4 -p tcp -e 1040 -c 0 -i 50 -a 0 -x {1.0 4.0 33 ------- null}
+ -t 0.7812 -s 4 -d 1 -p ack -e 40 -c 0 -i 86 -a 0 -x {4.0 1.0 33 ------- null}
- -t 0.7812 -s 4 -d 1 -p ack -e 40 -c 0 -i 86 -a 0 -x {4.0 1.0 33 ------- null}
h -t 0.7812 -s 4 -d 1 -p ack -e 40 -c 0 -i 86 -a 0 -x {4.0 1.0 -1 ------- null}
r -t 0.78352 -s 4 -d 1 -p ack -e 40 -c 0 -i 86 -a 0 -x {4.0 1.0 33 ------- null}
+ -t 0.78352 -s 1 -d 4 -p tcp -e 1040 -c 0 -i 87 -a 0 -x {1.0 4.0 53 ------- null}
- -t 0.78752 -s 1 -d 4 -p tcp -e 1040 -c 0 -i 53 -a 0 -x {1.0 4.0 35 ------- null}
h -t 0.78752 -s 1 -d 4 -p tcp -e 1040 -c 0 -i 53 -a 0 -x {1.0 4.0 -1 ------- null}
r -t 0.78952 -s 1 -d 4 -p tcp -e 1040 -c 0 -i 51 -a 0 -x {1.0 4.0 34 ------- null}
+ -t 0.78952 -s 4 -d 1 -p ack -e 40 -c 0 -i 88 -a 0 -x {4.0 1.0 34 ------- null}
- -t 0.78952 -s 4 -d 1 -p ack -e 40 -c 0 -i 88 -a 0 -x {4.0 1.0 34 ------- null}
h -t 0.78952 -s 4 -d 1 -p ack -e 40 -c 0 -i 88 -a 0 -x {4.0 1.0 -1 ------- null}
r -t 0.79184 -s 4 -d 1 -p ack -e 40 -c 0 -i 88 -a 0 -x {4.0 1.0 34 ------- null}
+ -t 0.79184 -s 1 -d 4 -p tcp -e 1040 -c 0 -i 89 -a 0 -x {1.0 4.0 54 ------- null}
- -t 0.79584 -s 1 -d 4 -p tcp -e 1040 -c 0 -i 54 -a 0 -x {1.0 4.0 36 ------- null}
h -t 0.79584 -s 1 -d 4 -p tcp -e 1040 -c 0 -i 54 -a 0 -x {1.0 4.0 -1 ------- null}
r -t 0.79784 -s 1 -d 4 -p tcp -e 1040 -c 0 -i 53 -a 0 -x {1.0 4.0 35 ------- null}
+ -t 0.79784 -s 4 -d 1 -p ack -e 40 -c 0 -i 90 -a 0 -x {4.0 1.0 35 ------- null}
- -t 0.79784 -s 4 -d 1 -p ack -e 40 -c 0 -i 90 -a 0 -x {4.0 1.0 35 ------- null}
h -t 0.79784 -s 4 -d 1 -p ack -e 40 -c 0 -i 90 -a 0 -x {4.0 1.0 -1 ------- null}
r -t 0.80016 -s 4 -d 1 -p ack -e 40 -c 0 -i 90 -a 0 -x {4.0 1.0 35 ------- null}
+ -t 0.80016 -s 1 -d 4 -p tcp -e 1040 -c 0 -i 91 -a 0 -x {1.0 4.0 55 ------- null}
- -t 0.80416 -s 1 -d 4 -p tcp -e 1040 -c 0 -i 56 -a 0 -x {1.0 4.0 37 ------- null}
h -t 0.80416 -s 1 -d 4 -p tcp -e 1040 -c 0 -i 56 -a 0 -x {1.0 4.0 -1 ------- null}
r -t 0.80616 -s 1 -d 4 -p tcp -e 1040 -c 0 -i 54 -a 0 -x {1.0 4.0 36 ------- null}
+ -t 0.80616 -s 4 -d 1 -p ack -e 40 -c 0 -i 92 -a 0 -x {4.0 1.0 36 ------- null}
- -t 0.80616 -s 4 -d 1 -p ack -e 40 -c 0 -i 92 -a 0 -x {4.0 1.0 36 ------- null}
h -t 0.80616 -s 4 -d 1 -p ack -e 40 -c 0 -i 92 -a 0 -x {4.0 1.0 -1 ------- null}
r -t 0.80848 -s 4 -d 1 -p ack -e 40 -c 0 -i 92 -a 0 -x {4.0 1.0 36 ------- null}
+ -t 0.80848 -s 1 -d 4 -p tcp -e 1040 -c 0 -i 93 -a 0 -x {1.0 4.0 56 ------- null}
- -t 0.81248 -s 1 -d 4 -p tcp -e 1040 -c 0 -i 57 -a 0 -x {1.0 4.0 38 ------- null}
h -t 0.81248 -s 1 -d 4 -p tcp -e 1040 -c 0 -i 57 -a 0 -x {1.0 4.0 -1 ------- null}
r -t 0.81448 -s 1 -d 4 -p tcp -e 1040 -c 0 -i 56 -a 0 -x {1.0 4.0 37 ------- null}
+ -t 0.81448 -s 4 -d 1 -p ack -e 40 -c 0 -i 94 -a 0 -x {4.0 1.0 37 ------- null}
- -t 0.81448 -s 4 -d 1 -p ack -e 40 -c 0 -i 94 -a 0 -x {4.0 1.0 37 ------- null}
h -t 0.81448 -s 4 -d 1 -p ack -e 40 -c 0 -i 94 -a 0 -x {4.0 1.0 -1 ------- null}
r -t 0.8168 -s 4 -d 1 -p ack -e 40 -c 0 -i 94 -a 0 -x {4.0 1.0 37 ------- null}
+ -t 0.8168 -s 1 -d 4 -p tcp -e 1040 -c 0 -i 95 -a 0 -x {1.0 4.0 57 ------- null}
- -t 0.8208 -s 1 -d 4 -p tcp -e 1040 -c 0 -i 59 -a 0 -x {1.0 4.0 39 ------- null}
h -t 0.8208 -s 1 -d 4 -p tcp -e 1040 -c 0 -i 59 -a 0 -x {1.0 4.0 -1 ------- null}
r -t 0.8228 -s 1 -d 4 -p tcp -e 1040 -c 0 -i 57 -a 0 -x {1.0 4.0 38 ------- null}
+ -t 0.8228 -s 4 -d 1 -p ack -e 40 -c 0 -i 96 -a 0 -x {4.0 1.0 38 ------- null}
- -t 0.8228 -s 4 -d 1 -p ack -e 40 -c 0 -i 96 -a 0 -x {4.0 1.0 38 ------- null}
h -t 0.8228 -s 4 -d 1 -p ack -e 40 -c 0 -i 96 -a 0 -x {4.0 1.0 -1 ------- null}
r -t 0.82512 -s 4 -d 1 -p ack -e 40 -c 0 -i 96 -a 0 -x {4.0 1.0 38 ------- null}
+ -t 0.82512 -s 1 -d 4 -p tcp -e 1040 -c 0 -i 97 -a 0 -x {1.0 4.0 58 ------- null}
- -t 0.82912 -s 1 -d 4 -p tcp -e 1040 -c 0 -i 61 -a 0 -x {1.0 4.0 40 ------- null}
h -t 0.82912 -s 1 -d 4 -p tcp -e 1040 -c 0 -i 61 -a 0 -x {1.0 4.0 -1 ------- null}
r -t 0.83112 -s 1 -d 4 -p tcp -e 1040 -c 0 -i 59 -a 0 -x {1.0 4.0 39 ------- null}
+ -t 0.83112 -s 4 -d 1 -p ack -e 40 -c 0 -i 98 -a 0 -x {4.0 1.0 39 ------- null}
- -t 0.83112 -s 4 -d 1 -p ack -e 40 -c 0 -i 98 -a 0 -x {4.0 1.0 39 ------- null}
h -t 0.83112 -s 4 -d 1 -p ack -e 40 -c 0 -i 98 -a 0 -x {4.0 1.0 -1 ------- null}
r -t 0.83344 -s 4 -d 1 -p ack -e 40 -c 0 -i 98 -a 0 -x {4.0 1.0 39 ------- null}
+ -t 0.83344 -s 1 -d 4 -p tcp -e 1040 -c 0 -i 99 -a 0 -x {1.0 4.0 59 ------- null}
- -t 0.83744 -s 1 -d 4 -p tcp -e 1040 -c 0 -i 63 -a 0 -x {1.0 4.0 41 ------- null}
h -t 0.83744 -s 1 -d 4 -p tcp -e 1040 -c 0 -i 63 -a 0 -x {1.0 4.0 -1 ------- null}
r -t 0.83944 -s 1 -d 4 -p tcp -e 1040 -c 0 -i 61 -a 0 -x {1.0 4.0 40 ------- null}
+ -t 0.83944 -s 4 -d 1 -p ack -e 40 -c 0 -i 100 -a 0 -x {4.0 1.0 40 ------- null}
- -t 0.83944 -s 4 -d 1 -p ack -e 40 -c 0 -i 100 -a 0 -x {4.0 1.0 40 ------- null}
h -t 0.83944 -s 4 -d 1 -p ack -e 40 -c 0 -i 100 -a 0 -x {4.0 1.0 -1 ------- null}
r -t 0.84176 -s 4 -d 1 -p ack -e 40 -c 0 -i 100 -a 0 -x {4.0 1.0 40 ------- null}
+ -t 0.84176 -s 1 -d 4 -p tcp -e 1040 -c 0 -i 101 -a 0 -x {1.0 4.0 60 ------- null}
- -t 0.84576 -s 1 -d 4 -p tcp -e 1040 -c 0 -i 65 -a 0 -x {1.0 4.0 42 ------- null}
h -t 0.84576 -s 1 -d 4 -p tcp -e 1040 -c 0 -i 65 -a 0 -x {1.0 4.0 -1 ------- null}
r -t 0.84776 -s 1 -d 4 -p tcp -e 1040 -c 0 -i 63 -a 0 -x {1.0 4.0 41 ------- null}
+ -t 0.84776 -s 4 -d 1 -p ack -e 40 -c 0 -i 102 -a 0 -x {4.0 1.0 41 ------- null}
- -t 0.84776 -s 4 -d 1 -p ack -e 40 -c 0 -i 102 -a 0 -x {4.0 1.0 41 ------- null}
h -t 0.84776 -s 4 -d 1 -p ack -e 40 -c 0 -i 102 -a 0 -x {4.0 1.0 -1 ------- null}