+ 0.5 0 1 cbr 210 ------- 0 0.0 1.0 0 0
- 0.5 0 1 cbr 210 ------- 0 0.0 1.0 0 0
+ 0.5 3 0 cbr 210 ------- 0 3.0 0.1 0 1
- 0.5 3 0 cbr 210 ------- 0 3.0 0.1 0 1
+ 0.5 1 2 tcp 40 ------- 0 1.1 2.0 0 2
- 0.5 1 2 tcp 40 ------- 0 1.1 2.0 0 2
+ 0.5 0 1 tcp 40 ------- 0 0.2 1.2 0 3
- 0.50112 0 1 tcp 40 ------- 0 0.2 1.2 0 3
+ 0.50375 0 1 cbr 210 ------- 0 0.0 1.0 1 4
- 0.50375 0 1 cbr 210 ------- 0 0.0 1.0 1 4
+ 0.50375 3 0 cbr 210 ------- 0 3.0 0.1 1 5
- 0.50375 3 0 cbr 210 ------- 0 3.0 0.1 1 5
+ 0.5075 0 1 cbr 210 ------- 0 0.0 1.0 2 6
- 0.5075 0 1 cbr 210 ------- 0 0.0 1.0 2 6
+ 0.5075 3 0 cbr 210 ------- 0 3.0 0.1 2 7
- 0.5075 3 0 cbr 210 ------- 0 3.0 0.1 2 7
r 0.510213 1 2 tcp 40 ------- 0 1.1 2.0 0 2
+ 0.510213 2 1 ack 40 ------- 0 2.0 1.1 0 8
- 0.510213 2 1 ack 40 ------- 0 2.0 1.1 0 8
r 0.51112 0 1 cbr 210 ------- 0 0.0 1.0 0 0
r 0.51112 3 0 cbr 210 ------- 0 3.0 0.1 0 1
+ 0.51125 0 1 cbr 210 ------- 0 0.0 1.0 3 9
- 0.51125 0 1 cbr 210 ------- 0 0.0 1.0 3 9
+ 0.51125 3 0 cbr 210 ------- 0 3.0 0.1 3 10
- 0.51125 3 0 cbr 210 ------- 0 3.0 0.1 3 10
r 0.511333 0 1 tcp 40 ------- 0 0.2 1.2 0 3
+ 0.511333 1 0 ack 40 ------- 0 1.2 0.2 0 11
- 0.511333 1 0 ack 40 ------- 0 1.2 0.2 0 11
r 0.51487 0 1 cbr 210 ------- 0 0.0 1.0 1 4
r 0.51487 3 0 cbr 210 ------- 0 3.0 0.1 1 5
+ 0.515 0 1 cbr 210 ------- 0 0.0 1.0 4 12
- 0.515 0 1 cbr 210 ------- 0 0.0 1.0 4 12
+ 0.515 3 0 cbr 210 ------- 0 3.0 0.1 4 13
- 0.515 3 0 cbr 210 ------- 0 3.0 0.1 4 13
r 0.51862 0 1 cbr 210 ------- 0 0.0 1.0 2 6
r 0.51862 3 0 cbr 210 ------- 0 3.0 0.1 2 7
+ 0.51875 0 1 cbr 210 ------- 0 0.0 1.0 5 14
- 0.51875 0 1 cbr 210 ------- 0 0.0 1.0 5 14
+ 0.51875 3 0 cbr 210 ------- 0 3.0 0.1 5 15
- 0.51875 3 0 cbr 210 ------- 0 3.0 0.1 5 15
r 0.520427 2 1 ack 40 ------- 0 2.0 1.1 0 8
+ 0.520427 1 2 tcp 1040 ------- 0 1.1 2.0 1 16
- 0.520427 1 2 tcp 1040 ------- 0 1.1 2.0 1 16
+ 0.520427 1 2 tcp 1040 ------- 0 1.1 2.0 2 17
r 0.521547 1 0 ack 40 ------- 0 1.2 0.2 0 11
+ 0.521547 0 1 tcp 1040 ------- 0 0.2 1.2 1 18
- 0.521547 0 1 tcp 1040 ------- 0 0.2 1.2 1 18
+ 0.521547 0 1 tcp 1040 ------- 0 0.2 1.2 2 19
r 0.52237 0 1 cbr 210 ------- 0 0.0 1.0 3 9
r 0.52237 3 0 cbr 210 ------- 0 3.0 0.1 3 10
+ 0.5225 0 1 cbr 210 ------- 0 0.0 1.0 6 20
+ 0.5225 3 0 cbr 210 ------- 0 3.0 0.1 6 21
- 0.5225 3 0 cbr 210 ------- 0 3.0 0.1 6 21
- 0.525973 1 2 tcp 1040 ------- 0 1.1 2.0 2 17
r 0.52612 0 1 cbr 210 ------- 0 0.0 1.0 4 12
r 0.52612 3 0 cbr 210 ------- 0 3.0 0.1 4 13
+ 0.52625 0 1 cbr 210 ------- 0 0.0 1.0 7 22
+ 0.52625 3 0 cbr 210 ------- 0 3.0 0.1 7 23
- 0.52625 3 0 cbr 210 ------- 0 3.0 0.1 7 23
- 0.527093 0 1 tcp 1040 ------- 0 0.2 1.2 2 19
r 0.52987 0 1 cbr 210 ------- 0 0.0 1.0 5 14
r 0.52987 3 0 cbr 210 ------- 0 3.0 0.1 5 15
+ 0.53 0 1 cbr 210 ------- 0 0.0 1.0 8 24
+ 0.53 3 0 cbr 210 ------- 0 3.0 0.1 8 25
- 0.53 3 0 cbr 210 ------- 0 3.0 0.1 8 25
- 0.53264 0 1 cbr 210 ------- 0 0.0 1.0 6 20
r 0.53362 3 0 cbr 210 ------- 0 3.0 0.1 6 21
+ 0.53375 0 1 cbr 210 ------- 0 0.0 1.0 9 26
+ 0.53375 3 0 cbr 210 ------- 0 3.0 0.1 9 27
- 0.53375 3 0 cbr 210 ------- 0 3.0 0.1 9 27
- 0.53376 0 1 cbr 210 ------- 0 0.0 1.0 7 22
- 0.53488 0 1 cbr 210 ------- 0 0.0 1.0 8 24
r 0.535973 1 2 tcp 1040 ------- 0 1.1 2.0 1 16
+ 0.535973 2 1 ack 40 ------- 0 2.0 1.1 1 28
- 0.535973 2 1 ack 40 ------- 0 2.0 1.1 1 28
- 0.536 0 1 cbr 210 ------- 0 0.0 1.0 9 26
r 0.537093 0 1 tcp 1040 ------- 0 0.2 1.2 1 18
+ 0.537093 1 0 ack 40 ------- 0 1.2 0.2 1 29
- 0.537093 1 0 ack 40 ------- 0 1.2 0.2 1 29
r 0.53737 3 0 cbr 210 ------- 0 3.0 0.1 7 23
+ 0.5375 0 1 cbr 210 ------- 0 0.0 1.0 10 30
- 0.5375 0 1 cbr 210 ------- 0 0.0 1.0 10 30
+ 0.5375 3 0 cbr 210 ------- 0 3.0 0.1 10 31
- 0.5375 3 0 cbr 210 ------- 0 3.0 0.1 10 31
r 0.54112 3 0 cbr 210 ------- 0 3.0 0.1 8 25
+ 0.54125 0 1 cbr 210 ------- 0 0.0 1.0 11 32
- 0.54125 0 1 cbr 210 ------- 0 0.0 1.0 11 32
+ 0.54125 3 0 cbr 210 ------- 0 3.0 0.1 11 33
- 0.54125 3 0 cbr 210 ------- 0 3.0 0.1 11 33
r 0.54152 1 2 tcp 1040 ------- 0 1.1 2.0 2 17
+ 0.54152 2 1 ack 40 ------- 0 2.0 1.1 2 34
- 0.54152 2 1 ack 40 ------- 0 2.0 1.1 2 34
r 0.54264 0 1 tcp 1040 ------- 0 0.2 1.2 2 19
+ 0.54264 1 0 ack 40 ------- 0 1.2 0.2 2 35
- 0.54264 1 0 ack 40 ------- 0 1.2 0.2 2 35
r 0.54376 0 1 cbr 210 ------- 0 0.0 1.0 6 20
r 0.54487 3 0 cbr 210 ------- 0 3.0 0.1 9 27
r 0.54488 0 1 cbr 210 ------- 0 0.0 1.0 7 22
+ 0.545 0 1 cbr 210 ------- 0 0.0 1.0 12 36
- 0.545 0 1 cbr 210 ------- 0 0.0 1.0 12 36
+ 0.545 3 0 cbr 210 ------- 0 3.0 0.1 12 37
- 0.545 3 0 cbr 210 ------- 0 3.0 0.1 12 37
r 0.546 0 1 cbr 210 ------- 0 0.0 1.0 8 24
r 0.546187 2 1 ack 40 ------- 0 2.0 1.1 1 28
+ 0.546187 1 2 tcp 1040 ------- 0 1.1 2.0 3 38
- 0.546187 1 2 tcp 1040 ------- 0 1.1 2.0 3 38
+ 0.546187 1 2 tcp 1040 ------- 0 1.1 2.0 4 39
r 0.54712 0 1 cbr 210 ------- 0 0.0 1.0 9 26
r 0.547307 1 0 ack 40 ------- 0 1.2 0.2 1 29
+ 0.547307 0 1 tcp 1040 ------- 0 0.2 1.2 3 40
- 0.547307 0 1 tcp 1040 ------- 0 0.2 1.2 3 40
+ 0.547307 0 1 tcp 1040 ------- 0 0.2 1.2 4 41
r 0.54862 0 1 cbr 210 ------- 0 0.0 1.0 10 30
r 0.54862 3 0 cbr 210 ------- 0 3.0 0.1 10 31
+ 0.54875 0 1 cbr 210 ------- 0 0.0 1.0 13 42
+ 0.54875 3 0 cbr 210 ------- 0 3.0 0.1 13 43
- 0.54875 3 0 cbr 210 ------- 0 3.0 0.1 13 43
r 0.551733 2 1 ack 40 ------- 0 2.0 1.1 2 34
+ 0.551733 1 2 tcp 1040 ------- 0 1.1 2.0 5 44
+ 0.551733 1 2 tcp 1040 ------- 0 1.1 2.0 6 45
- 0.551733 1 2 tcp 1040 ------- 0 1.1 2.0 4 39
r 0.55237 0 1 cbr 210 ------- 0 0.0 1.0 11 32
r 0.55237 3 0 cbr 210 ------- 0 3.0 0.1 11 33
+ 0.5525 0 1 cbr 210 ------- 0 0.0 1.0 14 46
+ 0.5525 3 0 cbr 210 ------- 0 3.0 0.1 14 47
- 0.5525 3 0 cbr 210 ------- 0 3.0 0.1 14 47
r 0.552853 1 0 ack 40 ------- 0 1.2 0.2 2 35
+ 0.552853 0 1 tcp 1040 ------- 0 0.2 1.2 5 48
+ 0.552853 0 1 tcp 1040 ------- 0 0.2 1.2 6 49
- 0.552853 0 1 tcp 1040 ------- 0 0.2 1.2 4 41
r 0.55612 0 1 cbr 210 ------- 0 0.0 1.0 12 36
r 0.55612 3 0 cbr 210 ------- 0 3.0 0.1 12 37
+ 0.55625 0 1 cbr 210 ------- 0 0.0 1.0 15 50
+ 0.55625 3 0 cbr 210 ------- 0 3.0 0.1 15 51
- 0.55625 3 0 cbr 210 ------- 0 3.0 0.1 15 51
- 0.55728 1 2 tcp 1040 ------- 0 1.1 2.0 5 44
- 0.5584 0 1 cbr 210 ------- 0 0.0 1.0 13 42
- 0.55952 0 1 cbr 210 ------- 0 0.0 1.0 14 46
r 0.55987 3 0 cbr 210 ------- 0 3.0 0.1 13 43
+ 0.56 0 1 cbr 210 ------- 0 0.0 1.0 16 52
+ 0.56 3 0 cbr 210 ------- 0 3.0 0.1 16 53
- 0.56 3 0 cbr 210 ------- 0 3.0 0.1 16 53
- 0.56064 0 1 tcp 1040 ------- 0 0.2 1.2 5 48
r 0.561733 1 2 tcp 1040 ------- 0 1.1 2.0 3 38
+ 0.561733 2 1 ack 40 ------- 0 2.0 1.1 3 54
- 0.561733 2 1 ack 40 ------- 0 2.0 1.1 3 54
- 0.562827 1 2 tcp 1040 ------- 0 1.1 2.0 6 45
r 0.562853 0 1 tcp 1040 ------- 0 0.2 1.2 3 40
+ 0.562853 1 0 ack 40 ------- 0 1.2 0.2 3 55
- 0.562853 1 0 ack 40 ------- 0 1.2 0.2 3 55
r 0.56362 3 0 cbr 210 ------- 0 3.0 0.1 14 47
+ 0.56375 0 1 cbr 210 ------- 0 0.0 1.0 17 56
+ 0.56375 3 0 cbr 210 ------- 0 3.0 0.1 17 57
- 0.56375 3 0 cbr 210 ------- 0 3.0 0.1 17 57
- 0.566187 0 1 tcp 1040 ------- 0 0.2 1.2 6 49
r 0.56728 1 2 tcp 1040 ------- 0 1.1 2.0 4 39
+ 0.56728 2 1 ack 40 ------- 0 2.0 1.1 4 58
- 0.56728 2 1 ack 40 ------- 0 2.0 1.1 4 58
r 0.56737 3 0 cbr 210 ------- 0 3.0 0.1 15 51
+ 0.5675 0 1 cbr 210 ------- 0 0.0 1.0 18 59
+ 0.5675 3 0 cbr 210 ------- 0 3.0 0.1 18 60
- 0.5675 3 0 cbr 210 ------- 0 3.0 0.1 18 60
r 0.5684 0 1 tcp 1040 ------- 0 0.2 1.2 4 41
+ 0.5684 1 0 ack 40 ------- 0 1.2 0.2 4 61
- 0.5684 1 0 ack 40 ------- 0 1.2 0.2 4 61
r 0.56952 0 1 cbr 210 ------- 0 0.0 1.0 13 42
r 0.57064 0 1 cbr 210 ------- 0 0.0 1.0 14 46
r 0.57112 3 0 cbr 210 ------- 0 3.0 0.1 16 53
+ 0.57125 0 1 cbr 210 ------- 0 0.0 1.0 19 62
+ 0.57125 3 0 cbr 210 ------- 0 3.0 0.1 19 63
- 0.57125 3 0 cbr 210 ------- 0 3.0 0.1 19 63
- 0.571733 0 1 cbr 210 ------- 0 0.0 1.0 15 50
r 0.571947 2 1 ack 40 ------- 0 2.0 1.1 3 54
+ 0.571947 1 2 tcp 1040 ------- 0 1.1 2.0 7 64
- 0.571947 1 2 tcp 1040 ------- 0 1.1 2.0 7 64
+ 0.571947 1 2 tcp 1040 ------- 0 1.1 2.0 8 65
r 0.572827 1 2 tcp 1040 ------- 0 1.1 2.0 5 44
+ 0.572827 2 1 ack 40 ------- 0 2.0 1.1 5 66
- 0.572827 2 1 ack 40 ------- 0 2.0 1.1 5 66
- 0.572853 0 1 cbr 210 ------- 0 0.0 1.0 16 52
r 0.573067 1 0 ack 40 ------- 0 1.2 0.2 3 55
+ 0.573067 0 1 tcp 1040 ------- 0 0.2 1.2 7 67
+ 0.573067 0 1 tcp 1040 ------- 0 0.2 1.2 8 68
- 0.573973 0 1 cbr 210 ------- 0 0.0 1.0 17 56
r 0.57487 3 0 cbr 210 ------- 0 3.0 0.1 17 57
+ 0.575 0 1 cbr 210 ------- 0 0.0 1.0 20 69
+ 0.575 3 0 cbr 210 ------- 0 3.0 0.1 20 70
- 0.575 3 0 cbr 210 ------- 0 3.0 0.1 20 70
- 0.575093 0 1 cbr 210 ------- 0 0.0 1.0 18 59
r 0.576187 0 1 tcp 1040 ------- 0 0.2 1.2 5 48
+ 0.576187 1 0 ack 40 ------- 0 1.2 0.2 5 71
- 0.576187 1 0 ack 40 ------- 0 1.2 0.2 5 71
- 0.576213 0 1 cbr 210 ------- 0 0.0 1.0 19 62
- 0.577333 0 1 tcp 1040 ------- 0 0.2 1.2 7 67
r 0.577493 2 1 ack 40 ------- 0 2.0 1.1 4 58
+ 0.577493 1 2 tcp 1040 ------- 0 1.1 2.0 9 72
+ 0.577493 1 2 tcp 1040 ------- 0 1.1 2.0 10 73
- 0.577493 1 2 tcp 1040 ------- 0 1.1 2.0 8 65
r 0.578373 1 2 tcp 1040 ------- 0 1.1 2.0 6 45
+ 0.578373 2 1 ack 40 ------- 0 2.0 1.1 6 74
- 0.578373 2 1 ack 40 ------- 0 2.0 1.1 6 74
r 0.578613 1 0 ack 40 ------- 0 1.2 0.2 4 61
+ 0.578613 0 1 tcp 1040 ------- 0 0.2 1.2 9 75
+ 0.578613 0 1 tcp 1040 ------- 0 0.2 1.2 10 76
r 0.57862 3 0 cbr 210 ------- 0 3.0 0.1 18 60
+ 0.57875 0 1 cbr 210 ------- 0 0.0 1.0 21 77
+ 0.57875 3 0 cbr 210 ------- 0 3.0 0.1 21 78
- 0.57875 3 0 cbr 210 ------- 0 3.0 0.1 21 78
r 0.581733 0 1 tcp 1040 ------- 0 0.2 1.2 6 49
+ 0.581733 1 0 ack 40 ------- 0 1.2 0.2 6 79
- 0.581733 1 0 ack 40 ------- 0 1.2 0.2 6 79
r 0.58237 3 0 cbr 210 ------- 0 3.0 0.1 19 63
+ 0.5825 0 1 cbr 210 ------- 0 0.0 1.0 22 80
+ 0.5825 3 0 cbr 210 ------- 0 3.0 0.1 22 81
- 0.5825 3 0 cbr 210 ------- 0 3.0 0.1 22 81
r 0.582853 0 1 cbr 210 ------- 0 0.0 1.0 15 50
- 0.58288 0 1 tcp 1040 ------- 0 0.2 1.2 8 68
r 0.58304 2 1 ack 40 ------- 0 2.0 1.1 5 66
+ 0.58304 1 2 tcp 1040 ------- 0 1.1 2.0 11 82
+ 0.58304 1 2 tcp 1040 ------- 0 1.1 2.0 12 83
- 0.58304 1 2 tcp 1040 ------- 0 1.1 2.0 9 72
r 0.583973 0 1 cbr 210 ------- 0 0.0 1.0 16 52
r 0.585093 0 1 cbr 210 ------- 0 0.0 1.0 17 56
r 0.58612 3 0 cbr 210 ------- 0 3.0 0.1 20 70
r 0.586213 0 1 cbr 210 ------- 0 0.0 1.0 18 59
+ 0.58625 0 1 cbr 210 ------- 0 0.0 1.0 23 84
+ 0.58625 3 0 cbr 210 ------- 0 3.0 0.1 23 85
- 0.58625 3 0 cbr 210 ------- 0 3.0 0.1 23 85
r 0.5864 1 0 ack 40 ------- 0 1.2 0.2 5 71
+ 0.5864 0 1 tcp 1040 ------- 0 0.2 1.2 11 86
+ 0.5864 0 1 tcp 1040 ------- 0 0.2 1.2 12 87
r 0.587333 0 1 cbr 210 ------- 0 0.0 1.0 19 62
r 0.587493 1 2 tcp 1040 ------- 0 1.1 2.0 7 64
+ 0.587493 2 1 ack 40 ------- 0 2.0 1.1 7 88
- 0.587493 2 1 ack 40 ------- 0 2.0 1.1 7 88
- 0.588427 0 1 cbr 210 ------- 0 0.0 1.0 20 69
r 0.588587 2 1 ack 40 ------- 0 2.0 1.1 6 74
+ 0.588587 1 2 tcp 1040 ------- 0 1.1 2.0 13 89
+ 0.588587 1 2 tcp 1040 ------- 0 1.1 2.0 14 90
- 0.588587 1 2 tcp 1040 ------- 0 1.1 2.0 10 73
- 0.589547 0 1 tcp 1040 ------- 0 0.2 1.2 9 75
r 0.58987 3 0 cbr 210 ------- 0 3.0 0.1 21 78
+ 0.59 0 1 cbr 210 ------- 0 0.0 1.0 24 91
+ 0.59 3 0 cbr 210 ------- 0 3.0 0.1 24 92
- 0.59 3 0 cbr 210 ------- 0 3.0 0.1 24 92
r 0.591947 1 0 ack 40 ------- 0 1.2 0.2 6 79
+ 0.591947 0 1 tcp 1040 ------- 0 0.2 1.2 13 93
+ 0.591947 0 1 tcp 1040 ------- 0 0.2 1.2 14 94
r 0.59288 0 1 tcp 1040 ------- 0 0.2 1.2 7 67
+ 0.59288 1 0 ack 40 ------- 0 1.2 0.2 7 95
- 0.59288 1 0 ack 40 ------- 0 1.2 0.2 7 95
r 0.59304 1 2 tcp 1040 ------- 0 1.1 2.0 8 65
+ 0.59304 2 1 ack 40 ------- 0 2.0 1.1 8 96
- 0.59304 2 1 ack 40 ------- 0 2.0 1.1 8 96
r 0.59362 3 0 cbr 210 ------- 0 3.0 0.1 22 81
+ 0.59375 0 1 cbr 210 ------- 0 0.0 1.0 25 97
+ 0.59375 3 0 cbr 210 ------- 0 3.0 0.1 25 98
- 0.59375 3 0 cbr 210 ------- 0 3.0 0.1 25 98
- 0.594133 1 2 tcp 1040 ------- 0 1.1 2.0 11 82
- 0.595093 0 1 tcp 1040 ------- 0 0.2 1.2 10 76
r 0.59737 3 0 cbr 210 ------- 0 3.0 0.1 23 85
+ 0.5975 0 1 cbr 210 ------- 0 0.0 1.0 26 99
+ 0.5975 3 0 cbr 210 ------- 0 3.0 0.1 26 100
- 0.5975 3 0 cbr 210 ------- 0 3.0 0.1 26 100
r 0.597707 2 1 ack 40 ------- 0 2.0 1.1 7 88
+ 0.597707 1 2 tcp 1040 ------- 0 1.1 2.0 15 101
+ 0.597707 1 2 tcp 1040 ------- 0 1.1 2.0 16 102
r 0.598427 0 1 tcp 1040 ------- 0 0.2 1.2 8 68
+ 0.598427 1 0 ack 40 ------- 0 1.2 0.2 8 103
- 0.598427 1 0 ack 40 ------- 0 1.2 0.2 8 103
r 0.598587 1 2 tcp 1040 ------- 0 1.1 2.0 9 72
+ 0.598587 2 1 ack 40 ------- 0 2.0 1.1 9 104
- 0.598587 2 1 ack 40 ------- 0 2.0 1.1 9 104
r 0.599547 0 1 cbr 210 ------- 0 0.0 1.0 20 69
- 0.59968 1 2 tcp 1040 ------- 0 1.1 2.0 12 83
- 0.60064 0 1 cbr 210 ------- 0 0.0 1.0 21 77
r 0.60112 3 0 cbr 210 ------- 0 3.0 0.1 24 92
+ 0.60125 0 1 cbr 210 ------- 0 0.0 1.0 27 105
+ 0.60125 3 0 cbr 210 ------- 0 3.0 0.1 27 106
- 0.60125 3 0 cbr 210 ------- 0 3.0 0.1 27 106
- 0.60176 0 1 cbr 210 ------- 0 0.0 1.0 22 80
- 0.60288 0 1 cbr 210 ------- 0 0.0 1.0 23 84
r 0.603093 1 0 ack 40 ------- 0 1.2 0.2 7 95
+ 0.603093 0 1 tcp 1040 ------- 0 0.2 1.2 15 107
+ 0.603093 0 1 tcp 1040 ------- 0 0.2 1.2 16 108
r 0.603253 2 1 ack 40 ------- 0 2.0 1.1 8 96
+ 0.603253 1 2 tcp 1040 ------- 0 1.1 2.0 17 109
+ 0.603253 1 2 tcp 1040 ------- 0 1.1 2.0 18 110
- 0.604 0 1 tcp 1040 ------- 0 0.2 1.2 11 86
r 0.604133 1 2 tcp 1040 ------- 0 1.1 2.0 10 73
+ 0.604133 2 1 ack 40 ------- 0 2.0 1.1 10 111
- 0.604133 2 1 ack 40 ------- 0 2.0 1.1 10 111
r 0.60487 3 0 cbr 210 ------- 0 3.0 0.1 25 98
+ 0.605 0 1 cbr 210 ------- 0 0.0 1.0 28 112
+ 0.605 3 0 cbr 210 ------- 0 3.0 0.1 28 113
- 0.605 3 0 cbr 210 ------- 0 3.0 0.1 28 113
r 0.605093 0 1 tcp 1040 ------- 0 0.2 1.2 9 75
+ 0.605093 1 0 ack 40 ------- 0 1.2 0.2 9 114
- 0.605093 1 0 ack 40 ------- 0 1.2 0.2 9 114
- 0.605227 1 2 tcp 1040 ------- 0 1.1 2.0 13 89
r 0.60862 3 0 cbr 210 ------- 0 3.0 0.1 26 100
r 0.60864 1 0 ack 40 ------- 0 1.2 0.2 8 103
+ 0.60864 0 1 tcp 1040 ------- 0 0.2 1.2 17 115
+ 0.60864 0 1 tcp 1040 ------- 0 0.2 1.2 18 116
+ 0.60875 0 1 cbr 210 ------- 0 0.0 1.0 29 117
+ 0.60875 3 0 cbr 210 ------- 0 3.0 0.1 29 118
- 0.60875 3 0 cbr 210 ------- 0 3.0 0.1 29 118
r 0.6088 2 1 ack 40 ------- 0 2.0 1.1 9 104
+ 0.6088 1 2 tcp 1040 ------- 0 1.1 2.0 19 119
+ 0.6088 1 2 tcp 1040 ------- 0 1.1 2.0 20 120
- 0.609547 0 1 tcp 1040 ------- 0 0.2 1.2 12 87
r 0.60968 1 2 tcp 1040 ------- 0 1.1 2.0 11 82
+ 0.60968 2 1 ack 40 ------- 0 2.0 1.1 11 121
- 0.60968 2 1 ack 40 ------- 0 2.0 1.1 11 121
r 0.61064 0 1 tcp 1040 ------- 0 0.2 1.2 10 76
+ 0.61064 1 0 ack 40 ------- 0 1.2 0.2 10 122
- 0.61064 1 0 ack 40 ------- 0 1.2 0.2 10 122
- 0.610773 1 2 tcp 1040 ------- 0 1.1 2.0 14 90
r 0.61176 0 1 cbr 210 ------- 0 0.0 1.0 21 77
r 0.61237 3 0 cbr 210 ------- 0 3.0 0.1 27 106
+ 0.6125 0 1 cbr 210 ------- 0 0.0 1.0 30 123
+ 0.6125 3 0 cbr 210 ------- 0 3.0 0.1 30 124
- 0.6125 3 0 cbr 210 ------- 0 3.0 0.1 30 124
r 0.61288 0 1 cbr 210 ------- 0 0.0 1.0 22 80
r 0.614 0 1 cbr 210 ------- 0 0.0 1.0 23 84
r 0.614347 2 1 ack 40 ------- 0 2.0 1.1 10 111
+ 0.614347 1 2 tcp 1040 ------- 0 1.1 2.0 21 125
+ 0.614347 1 2 tcp 1040 ------- 0 1.1 2.0 22 126
- 0.615093 0 1 cbr 210 ------- 0 0.0 1.0 24 91
r 0.615227 1 2 tcp 1040 ------- 0 1.1 2.0 12 83
+ 0.615227 2 1 ack 40 ------- 0 2.0 1.1 12 127
- 0.615227 2 1 ack 40 ------- 0 2.0 1.1 12 127
r 0.615307 1 0 ack 40 ------- 0 1.2 0.2 9 114
+ 0.615307 0 1 tcp 1040 ------- 0 0.2 1.2 19 128
+ 0.615307 0 1 tcp 1040 ------- 0 0.2 1.2 20 129
r 0.61612 3 0 cbr 210 ------- 0 3.0 0.1 28 113
- 0.616213 0 1 tcp 1040 ------- 0 0.2 1.2 13 93
+ 0.61625 0 1 cbr 210 ------- 0 0.0 1.0 31 130
+ 0.61625 3 0 cbr 210 ------- 0 3.0 0.1 31 131
- 0.61625 3 0 cbr 210 ------- 0 3.0 0.1 31 131
- 0.61632 1 2 tcp 1040 ------- 0 1.1 2.0 15 101
r 0.619547 0 1 tcp 1040 ------- 0 0.2 1.2 11 86
+ 0.619547 1 0 ack 40 ------- 0 1.2 0.2 11 132
- 0.619547 1 0 ack 40 ------- 0 1.2 0.2 11 132
r 0.61987 3 0 cbr 210 ------- 0 3.0 0.1 29 118
r 0.619893 2 1 ack 40 ------- 0 2.0 1.1 11 121
+ 0.619893 1 2 tcp 1040 ------- 0 1.1 2.0 23 133
+ 0.619893 1 2 tcp 1040 ------- 0 1.1 2.0 24 134
+ 0.62 0 1 cbr 210 ------- 0 0.0 1.0 32 135
+ 0.62 3 0 cbr 210 ------- 0 3.0 0.1 32 136
- 0.62 3 0 cbr 210 ------- 0 3.0 0.1 32 136
r 0.620773 1 2 tcp 1040 ------- 0 1.1 2.0 13 89
+ 0.620773 2 1 ack 40 ------- 0 2.0 1.1 13 137
- 0.620773 2 1 ack 40 ------- 0 2.0 1.1 13 137
r 0.620853 1 0 ack 40 ------- 0 1.2 0.2 10 122
+ 0.620853 0 1 tcp 1040 ------- 0 0.2 1.2 21 138
+ 0.620853 0 1 tcp 1040 ------- 0 0.2 1.2 22 139
- 0.62176 0 1 tcp 1040 ------- 0 0.2 1.2 14 94
- 0.621867 1 2 tcp 1040 ------- 0 1.1 2.0 16 102
r 0.62362 3 0 cbr 210 ------- 0 3.0 0.1 30 124
+ 0.62375 0 1 cbr 210 ------- 0 0.0 1.0 33 140
+ 0.62375 3 0 cbr 210 ------- 0 3.0 0.1 33 141
- 0.62375 3 0 cbr 210 ------- 0 3.0 0.1 33 141
r 0.625093 0 1 tcp 1040 ------- 0 0.2 1.2 12 87
+ 0.625093 1 0 ack 40 ------- 0 1.2 0.2 12 142
- 0.625093 1 0 ack 40 ------- 0 1.2 0.2 12 142
r 0.62544 2 1 ack 40 ------- 0 2.0 1.1 12 127
+ 0.62544 1 2 tcp 1040 ------- 0 1.1 2.0 25 143
+ 0.62544 1 2 tcp 1040 ------- 0 1.1 2.0 26 144
r 0.626213 0 1 cbr 210 ------- 0 0.0 1.0 24 91
r 0.62632 1 2 tcp 1040 ------- 0 1.1 2.0 14 90
+ 0.62632 2 1 ack 40 ------- 0 2.0 1.1 14 145
- 0.62632 2 1 ack 40 ------- 0 2.0 1.1 14 145
- 0.627307 0 1 cbr 210 ------- 0 0.0 1.0 25 97
r 0.62737 3 0 cbr 210 ------- 0 3.0 0.1 31 131
- 0.627413 1 2 tcp 1040 ------- 0 1.1 2.0 17 109
+ 0.6275 0 1 cbr 210 ------- 0 0.0 1.0 34 146
+ 0.6275 3 0 cbr 210 ------- 0 3.0 0.1 34 147
- 0.6275 3 0 cbr 210 ------- 0 3.0 0.1 34 147
- 0.628427 0 1 cbr 210 ------- 0 0.0 1.0 26 99
- 0.629547 0 1 cbr 210 ------- 0 0.0 1.0 27 105
r 0.62976 1 0 ack 40 ------- 0 1.2 0.2 11 132
+ 0.62976 0 1 tcp 1040 ------- 0 0.2 1.2 23 148
+ 0.62976 0 1 tcp 1040 ------- 0 0.2 1.2 24 149
- 0.630667 0 1 tcp 1040 ------- 0 0.2 1.2 15 107
r 0.630987 2 1 ack 40 ------- 0 2.0 1.1 13 137
+ 0.630987 1 2 tcp 1040 ------- 0 1.1 2.0 27 150
+ 0.630987 1 2 tcp 1040 ------- 0 1.1 2.0 28 151
r 0.63112 3 0 cbr 210 ------- 0 3.0 0.1 32 136
+ 0.63125 0 1 cbr 210 ------- 0 0.0 1.0 35 152
+ 0.63125 3 0 cbr 210 ------- 0 3.0 0.1 35 153
- 0.63125 3 0 cbr 210 ------- 0 3.0 0.1 35 153
r 0.63176 0 1 tcp 1040 ------- 0 0.2 1.2 13 93
+ 0.63176 1 0 ack 40 ------- 0 1.2 0.2 13 154
- 0.63176 1 0 ack 40 ------- 0 1.2 0.2 13 154
r 0.631867 1 2 tcp 1040 ------- 0 1.1 2.0 15 101
+ 0.631867 2 1 ack 40 ------- 0 2.0 1.1 15 155
- 0.631867 2 1 ack 40 ------- 0 2.0 1.1 15 155
- 0.63296 1 2 tcp 1040 ------- 0 1.1 2.0 18 110
r 0.63487 3 0 cbr 210 ------- 0 3.0 0.1 33 141
+ 0.635 0 1 cbr 210 ------- 0 0.0 1.0 36 156
+ 0.635 3 0 cbr 210 ------- 0 3.0 0.1 36 157
- 0.635 3 0 cbr 210 ------- 0 3.0 0.1 36 157
r 0.635307 1 0 ack 40 ------- 0 1.2 0.2 12 142
+ 0.635307 0 1 tcp 1040 ------- 0 0.2 1.2 25 158
+ 0.635307 0 1 tcp 1040 ------- 0 0.2 1.2 26 159
- 0.636213 0 1 tcp 1040 ------- 0 0.2 1.2 16 108
r 0.636533 2 1 ack 40 ------- 0 2.0 1.1 14 145
+ 0.636533 1 2 tcp 1040 ------- 0 1.1 2.0 29 160
+ 0.636533 1 2 tcp 1040 ------- 0 1.1 2.0 30 161
r 0.637307 0 1 tcp 1040 ------- 0 0.2 1.2 14 94
+ 0.637307 1 0 ack 40 ------- 0 1.2 0.2 14 162
- 0.637307 1 0 ack 40 ------- 0 1.2 0.2 14 162
r 0.637413 1 2 tcp 1040 ------- 0 1.1 2.0 16 102
+ 0.637413 2 1 ack 40 ------- 0 2.0 1.1 16 163
- 0.637413 2 1 ack 40 ------- 0 2.0 1.1 16 163
r 0.638427 0 1 cbr 210 ------- 0 0.0 1.0 25 97
- 0.638507 1 2 tcp 1040 ------- 0 1.1 2.0 19 119
r 0.63862 3 0 cbr 210 ------- 0 3.0 0.1 34 147
+ 0.63875 0 1 cbr 210 ------- 0 0.0 1.0 37 164
+ 0.63875 3 0 cbr 210 ------- 0 3.0 0.1 37 165
- 0.63875 3 0 cbr 210 ------- 0 3.0 0.1 37 165
r 0.639547 0 1 cbr 210 ------- 0 0.0 1.0 26 99
r 0.640667 0 1 cbr 210 ------- 0 0.0 1.0 27 105
- 0.64176 0 1 cbr 210 ------- 0 0.0 1.0 28 112
r 0.641973 1 0 ack 40 ------- 0 1.2 0.2 13 154
+ 0.641973 0 1 tcp 1040 ------- 0 0.2 1.2 27 166
+ 0.641973 0 1 tcp 1040 ------- 0 0.2 1.2 28 167
r 0.64208 2 1 ack 40 ------- 0 2.0 1.1 15 155
+ 0.64208 1 2 tcp 1040 ------- 0 1.1 2.0 31 168
+ 0.64208 1 2 tcp 1040 ------- 0 1.1 2.0 32 169
r 0.64237 3 0 cbr 210 ------- 0 3.0 0.1 35 153
+ 0.6425 0 1 cbr 210 ------- 0 0.0 1.0 38 170
+ 0.6425 3 0 cbr 210 ------- 0 3.0 0.1 38 171
- 0.6425 3 0 cbr 210 ------- 0 3.0 0.1 38 171
- 0.64288 0 1 tcp 1040 ------- 0 0.2 1.2 17 115
r 0.64296 1 2 tcp 1040 ------- 0 1.1 2.0 17 109
+ 0.64296 2 1 ack 40 ------- 0 2.0 1.1 17 172
- 0.64296 2 1 ack 40 ------- 0 2.0 1.1 17 172
- 0.644053 1 2 tcp 1040 ------- 0 1.1 2.0 20 120
r 0.64612 3 0 cbr 210 ------- 0 3.0 0.1 36 157
r 0.646213 0 1 tcp 1040 ------- 0 0.2 1.2 15 107
+ 0.646213 1 0 ack 40 ------- 0 1.2 0.2 15 173
- 0.646213 1 0 ack 40 ------- 0 1.2 0.2 15 173
+ 0.64625 0 1 cbr 210 ------- 0 0.0 1.0 39 174
+ 0.64625 3 0 cbr 210 ------- 0 3.0 0.1 39 175
- 0.64625 3 0 cbr 210 ------- 0 3.0 0.1 39 175
r 0.64752 1 0 ack 40 ------- 0 1.2 0.2 14 162
+ 0.64752 0 1 tcp 1040 ------- 0 0.2 1.2 29 176
+ 0.64752 0 1 tcp 1040 ------- 0 0.2 1.2 30 177
r 0.647627 2 1 ack 40 ------- 0 2.0 1.1 16 163
+ 0.647627 1 2 tcp 1040 ------- 0 1.1 2.0 33 178
+ 0.647627 1 2 tcp 1040 ------- 0 1.1 2.0 34 179
- 0.648427 0 1 tcp 1040 ------- 0 0.2 1.2 18 116
r 0.648507 1 2 tcp 1040 ------- 0 1.1 2.0 18 110
+ 0.648507 2 1 ack 40 ------- 0 2.0 1.1 18 180
- 0.648507 2 1 ack 40 ------- 0 2.0 1.1 18 180
- 0.6496 1 2 tcp 1040 ------- 0 1.1 2.0 21 125
r 0.64987 3 0 cbr 210 ------- 0 3.0 0.1 37 165
+ 0.65 0 1 cbr 210 ------- 0 0.0 1.0 40 181
+ 0.65 3 0 cbr 210 ------- 0 3.0 0.1 40 182
- 0.65 3 0 cbr 210 ------- 0 3.0 0.1 40 182
r 0.65176 0 1 tcp 1040 ------- 0 0.2 1.2 16 108
+ 0.65176 1 0 ack 40 ------- 0 1.2 0.2 16 183
- 0.65176 1 0 ack 40 ------- 0 1.2 0.2 16 183
r 0.65288 0 1 cbr 210 ------- 0 0.0 1.0 28 112
r 0.653173 2 1 ack 40 ------- 0 2.0 1.1 17 172
+ 0.653173 1 2 tcp 1040 ------- 0 1.1 2.0 35 184
+ 0.653173 1 2 tcp 1040 ------- 0 1.1 2.0 36 185
r 0.65362 3 0 cbr 210 ------- 0 3.0 0.1 38 171
+ 0.65375 0 1 cbr 210 ------- 0 0.0 1.0 41 186
+ 0.65375 3 0 cbr 210 ------- 0 3.0 0.1 41 187
- 0.65375 3 0 cbr 210 ------- 0 3.0 0.1 41 187
- 0.653973 0 1 cbr 210 ------- 0 0.0 1.0 29 117
r 0.654053 1 2 tcp 1040 ------- 0 1.1 2.0 19 119
+ 0.654053 2 1 ack 40 ------- 0 2.0 1.1 19 188
- 0.654053 2 1 ack 40 ------- 0 2.0 1.1 19 188
- 0.655093 0 1 cbr 210 ------- 0 0.0 1.0 30 123
- 0.655147 1 2 tcp 1040 ------- 0 1.1 2.0 22 126
- 0.656213 0 1 tcp 1040 ------- 0 0.2 1.2 19 128
r 0.656427 1 0 ack 40 ------- 0 1.2 0.2 15 173
+ 0.656427 0 1 tcp 1040 ------- 0 0.2 1.2 31 189
+ 0.656427 0 1 tcp 1040 ------- 0 0.2 1.2 32 190
r 0.65737 3 0 cbr 210 ------- 0 3.0 0.1 39 175
+ 0.6575 0 1 cbr 210 ------- 0 0.0 1.0 42 191
+ 0.6575 3 0 cbr 210 ------- 0 3.0 0.1 42 192
- 0.6575 3 0 cbr 210 ------- 0 3.0 0.1 42 192
r 0.658427 0 1 tcp 1040 ------- 0 0.2 1.2 17 115
+ 0.658427 1 0 ack 40 ------- 0 1.2 0.2 17 193
- 0.658427 1 0 ack 40 ------- 0 1.2 0.2 17 193
r 0.65872 2 1 ack 40 ------- 0 2.0 1.1 18 180
+ 0.65872 1 2 tcp 1040 ------- 0 1.1 2.0 37 194
+ 0.65872 1 2 tcp 1040 ------- 0 1.1 2.0 38 195
r 0.6596 1 2 tcp 1040 ------- 0 1.1 2.0 20 120
+ 0.6596 2 1 ack 40 ------- 0 2.0 1.1 20 196
- 0.6596 2 1 ack 40 ------- 0 2.0 1.1 20 196
- 0.660693 1 2 tcp 1040 ------- 0 1.1 2.0 23 133
r 0.66112 3 0 cbr 210 ------- 0 3.0 0.1 40 182
+ 0.66125 0 1 cbr 210 ------- 0 0.0 1.0 43 197
+ 0.66125 3 0 cbr 210 ------- 0 3.0 0.1 43 198
- 0.66125 3 0 cbr 210 ------- 0 3.0 0.1 43 198
- 0.66176 0 1 tcp 1040 ------- 0 0.2 1.2 20 129
r 0.661973 1 0 ack 40 ------- 0 1.2 0.2 16 183
+ 0.661973 0 1 tcp 1040 ------- 0 0.2 1.2 33 199
+ 0.661973 0 1 tcp 1040 ------- 0 0.2 1.2 34 200
r 0.663973 0 1 tcp 1040 ------- 0 0.2 1.2 18 116
+ 0.663973 1 0 ack 40 ------- 0 1.2 0.2 18 201
- 0.663973 1 0 ack 40 ------- 0 1.2 0.2 18 201
r 0.664267 2 1 ack 40 ------- 0 2.0 1.1 19 188
+ 0.664267 1 2 tcp 1040 ------- 0 1.1 2.0 39 202
+ 0.664267 1 2 tcp 1040 ------- 0 1.1 2.0 40 203
r 0.66487 3 0 cbr 210 ------- 0 3.0 0.1 41 187
+ 0.665 0 1 cbr 210 ------- 0 0.0 1.0 44 204
+ 0.665 3 0 cbr 210 ------- 0 3.0 0.1 44 205
- 0.665 3 0 cbr 210 ------- 0 3.0 0.1 44 205
r 0.665093 0 1 cbr 210 ------- 0 0.0 1.0 29 117
r 0.665147 1 2 tcp 1040 ------- 0 1.1 2.0 21 125
+ 0.665147 2 1 ack 40 ------- 0 2.0 1.1 21 206
- 0.665147 2 1 ack 40 ------- 0 2.0 1.1 21 206
r 0.666213 0 1 cbr 210 ------- 0 0.0 1.0 30 123
- 0.66624 1 2 tcp 1040 ------- 0 1.1 2.0 24 134
- 0.667307 0 1 cbr 210 ------- 0 0.0 1.0 31 130
- 0.668427 0 1 cbr 210 ------- 0 0.0 1.0 32 135
r 0.66862 3 0 cbr 210 ------- 0 3.0 0.1 42 192
r 0.66864 1 0 ack 40 ------- 0 1.2 0.2 17 193
+ 0.66864 0 1 tcp 1040 ------- 0 0.2 1.2 35 207
+ 0.66864 0 1 tcp 1040 ------- 0 0.2 1.2 36 208
+ 0.66875 0 1 cbr 210 ------- 0 0.0 1.0 45 209
+ 0.66875 3 0 cbr 210 ------- 0 3.0 0.1 45 210
- 0.66875 3 0 cbr 210 ------- 0 3.0 0.1 45 210
- 0.669547 0 1 tcp 1040 ------- 0 0.2 1.2 21 138
r 0.669813 2 1 ack 40 ------- 0 2.0 1.1 20 196
+ 0.669813 1 2 tcp 1040 ------- 0 1.1 2.0 41 211
+ 0.669813 1 2 tcp 1040 ------- 0 1.1 2.0 42 212
r 0.670693 1 2 tcp 1040 ------- 0 1.1 2.0 22 126
+ 0.670693 2 1 ack 40 ------- 0 2.0 1.1 22 213
- 0.670693 2 1 ack 40 ------- 0 2.0 1.1 22 213
r 0.67176 0 1 tcp 1040 ------- 0 0.2 1.2 19 128
+ 0.67176 1 0 ack 40 ------- 0 1.2 0.2 19 214
- 0.67176 1 0 ack 40 ------- 0 1.2 0.2 19 214
- 0.671787 1 2 tcp 1040 ------- 0 1.1 2.0 25 143
r 0.67237 3 0 cbr 210 ------- 0 3.0 0.1 43 198
+ 0.6725 0 1 cbr 210 ------- 0 0.0 1.0 46 215
+ 0.6725 3 0 cbr 210 ------- 0 3.0 0.1 46 216
- 0.6725 3 0 cbr 210 ------- 0 3.0 0.1 46 216
r 0.674187 1 0 ack 40 ------- 0 1.2 0.2 18 201
+ 0.674187 0 1 tcp 1040 ------- 0 0.2 1.2 37 217
+ 0.674187 0 1 tcp 1040 ------- 0 0.2 1.2 38 218
- 0.675093 0 1 tcp 1040 ------- 0 0.2 1.2 22 139
r 0.67536 2 1 ack 40 ------- 0 2.0 1.1 21 206
+ 0.67536 1 2 tcp 1040 ------- 0 1.1 2.0 43 219
+ 0.67536 1 2 tcp 1040 ------- 0 1.1 2.0 44 220
r 0.67612 3 0 cbr 210 ------- 0 3.0 0.1 44 205
r 0.67624 1 2 tcp 1040 ------- 0 1.1 2.0 23 133
+ 0.67624 2 1 ack 40 ------- 0 2.0 1.1 23 221
- 0.67624 2 1 ack 40 ------- 0 2.0 1.1 23 221
+ 0.67625 0 1 cbr 210 ------- 0 0.0 1.0 47 222
+ 0.67625 3 0 cbr 210 ------- 0 3.0 0.1 47 223
- 0.67625 3 0 cbr 210 ------- 0 3.0 0.1 47 223
r 0.677307 0 1 tcp 1040 ------- 0 0.2 1.2 20 129
+ 0.677307 1 0 ack 40 ------- 0 1.2 0.2 20 224
- 0.677307 1 0 ack 40 ------- 0 1.2 0.2 20 224
- 0.677333 1 2 tcp 1040 ------- 0 1.1 2.0 26 144
r 0.678427 0 1 cbr 210 ------- 0 0.0 1.0 31 130
r 0.679547 0 1 cbr 210 ------- 0 0.0 1.0 32 135
r 0.67987 3 0 cbr 210 ------- 0 3.0 0.1 45 210
+ 0.68 0 1 cbr 210 ------- 0 0.0 1.0 48 225
+ 0.68 3 0 cbr 210 ------- 0 3.0 0.1 48 226
- 0.68 3 0 cbr 210 ------- 0 3.0 0.1 48 226
- 0.68064 0 1 cbr 210 ------- 0 0.0 1.0 33 140
r 0.680907 2 1 ack 40 ------- 0 2.0 1.1 22 213
+ 0.680907 1 2 tcp 1040 ------- 0 1.1 2.0 45 227
+ 0.680907 1 2 tcp 1040 ------- 0 1.1 2.0 46 228
- 0.68176 0 1 cbr 210 ------- 0 0.0 1.0 34 146
r 0.681787 1 2 tcp 1040 ------- 0 1.1 2.0 24 134
+ 0.681787 2 1 ack 40 ------- 0 2.0 1.1 24 229
- 0.681787 2 1 ack 40 ------- 0 2.0 1.1 24 229
r 0.681973 1 0 ack 40 ------- 0 1.2 0.2 19 214
+ 0.681973 0 1 tcp 1040 ------- 0 0.2 1.2 39 230
+ 0.681973 0 1 tcp 1040 ------- 0 0.2 1.2 40 231
- 0.68288 1 2 tcp 1040 ------- 0 1.1 2.0 27 150
- 0.68288 0 1 tcp 1040 ------- 0 0.2 1.2 23 148
r 0.68362 3 0 cbr 210 ------- 0 3.0 0.1 46 216
+ 0.68375 0 1 cbr 210 ------- 0 0.0 1.0 49 232
+ 0.68375 3 0 cbr 210 ------- 0 3.0 0.1 49 233
- 0.68375 3 0 cbr 210 ------- 0 3.0 0.1 49 233
r 0.685093 0 1 tcp 1040 ------- 0 0.2 1.2 21 138
+ 0.685093 1 0 ack 40 ------- 0 1.2 0.2 21 234
- 0.685093 1 0 ack 40 ------- 0 1.2 0.2 21 234
r 0.686453 2 1 ack 40 ------- 0 2.0 1.1 23 221
+ 0.686453 1 2 tcp 1040 ------- 0 1.1 2.0 47 235
+ 0.686453 1 2 tcp 1040 ------- 0 1.1 2.0 48 236
r 0.687333 1 2 tcp 1040 ------- 0 1.1 2.0 25 143
+ 0.687333 2 1 ack 40 ------- 0 2.0 1.1 25 237
- 0.687333 2 1 ack 40 ------- 0 2.0 1.1 25 237
r 0.68737 3 0 cbr 210 ------- 0 3.0 0.1 47 223
+ 0.6875 0 1 cbr 210 ------- 0 0.0 1.0 50 238
+ 0.6875 3 0 cbr 210 ------- 0 3.0 0.1 50 239
- 0.6875 3 0 cbr 210 ------- 0 3.0 0.1 50 239
r 0.68752 1 0 ack 40 ------- 0 1.2 0.2 20 224
+ 0.68752 0 1 tcp 1040 ------- 0 0.2 1.2 41 240
+ 0.68752 0 1 tcp 1040 ------- 0 0.2 1.2 42 241
- 0.688427 1 2 tcp 1040 ------- 0 1.1 2.0 28 151
- 0.688427 0 1 tcp 1040 ------- 0 0.2 1.2 24 149
r 0.69064 0 1 tcp 1040 ------- 0 0.2 1.2 22 139
+ 0.69064 1 0 ack 40 ------- 0 1.2 0.2 22 242
- 0.69064 1 0 ack 40 ------- 0 1.2 0.2 22 242
r 0.69112 3 0 cbr 210 ------- 0 3.0 0.1 48 226
+ 0.69125 0 1 cbr 210 ------- 0 0.0 1.0 51 243
+ 0.69125 3 0 cbr 210 ------- 0 3.0 0.1 51 244
- 0.69125 3 0 cbr 210 ------- 0 3.0 0.1 51 244
r 0.69176 0 1 cbr 210 ------- 0 0.0 1.0 33 140
r 0.692 2 1 ack 40 ------- 0 2.0 1.1 24 229
+ 0.692 1 2 tcp 1040 ------- 0 1.1 2.0 49 245
+ 0.692 1 2 tcp 1040 ------- 0 1.1 2.0 50 246
r 0.69288 1 2 tcp 1040 ------- 0 1.1 2.0 26 144
+ 0.69288 2 1 ack 40 ------- 0 2.0 1.1 26 247
- 0.69288 2 1 ack 40 ------- 0 2.0 1.1 26 247
r 0.69288 0 1 cbr 210 ------- 0 0.0 1.0 34 146
- 0.693973 1 2 tcp 1040 ------- 0 1.1 2.0 29 160
- 0.693973 0 1 cbr 210 ------- 0 0.0 1.0 35 152
r 0.69487 3 0 cbr 210 ------- 0 3.0 0.1 49 233
+ 0.695 0 1 cbr 210 ------- 0 0.0 1.0 52 248
+ 0.695 3 0 cbr 210 ------- 0 3.0 0.1 52 249
- 0.695 3 0 cbr 210 ------- 0 3.0 0.1 52 249
- 0.695093 0 1 cbr 210 ------- 0 0.0 1.0 36 156
r 0.695307 1 0 ack 40 ------- 0 1.2 0.2 21 234
+ 0.695307 0 1 tcp 1040 ------- 0 0.2 1.2 43 250
+ 0.695307 0 1 tcp 1040 ------- 0 0.2 1.2 44 251
- 0.696213 0 1 tcp 1040 ------- 0 0.2 1.2 25 158
r 0.697547 2 1 ack 40 ------- 0 2.0 1.1 25 237
+ 0.697547 1 2 tcp 1040 ------- 0 1.1 2.0 51 252
+ 0.697547 1 2 tcp 1040 ------- 0 1.1 2.0 52 253
r 0.698427 1 2 tcp 1040 ------- 0 1.1 2.0 27 150
+ 0.698427 2 1 ack 40 ------- 0 2.0 1.1 27 254
- 0.698427 2 1 ack 40 ------- 0 2.0 1.1 27 254
r 0.698427 0 1 tcp 1040 ------- 0 0.2 1.2 23 148
+ 0.698427 1 0 ack 40 ------- 0 1.2 0.2 23 255
- 0.698427 1 0 ack 40 ------- 0 1.2 0.2 23 255
r 0.69862 3 0 cbr 210 ------- 0 3.0 0.1 50 239
+ 0.69875 0 1 cbr 210 ------- 0 0.0 1.0 53 256
+ 0.69875 3 0 cbr 210 ------- 0 3.0 0.1 53 257
- 0.69875 3 0 cbr 210 ------- 0 3.0 0.1 53 257
- 0.69952 1 2 tcp 1040 ------- 0 1.1 2.0 30 161
r 0.700853 1 0 ack 40 ------- 0 1.2 0.2 22 242
+ 0.700853 0 1 tcp 1040 ------- 0 0.2 1.2 45 258