+ 0 0 2 tcp 40 ------- 0 0.0 3.0 0 0
- 0 0 2 tcp 40 ------- 0 0.0 3.0 0 0
+ 0 1 2 tcp 40 ------- 1 1.0 3.1 0 1
- 0 1 2 tcp 40 ------- 1 1.0 3.1 0 1
+ 0 2 3 tcp 40 ------- 2 2.0 3.2 0 2
- 0 2 3 tcp 40 ------- 2 2.0 3.2 0 2
r 0.01016 2 3 tcp 40 ------- 2 2.0 3.2 0 2
+ 0.01016 3 2 ack 40 ------- 2 3.2 2.0 0 3
- 0.01016 3 2 ack 40 ------- 2 3.2 2.0 0 3
r 0.02032 3 2 ack 40 ------- 2 3.2 2.0 0 3
+ 0.02032 2 3 tcp 1040 ------- 2 2.0 3.2 1 4
- 0.02032 2 3 tcp 1040 ------- 2 2.0 3.2 1 4
+ 0.02032 2 3 tcp 1040 ------- 2 2.0 3.2 2 5
- 0.02448 2 3 tcp 1040 ------- 2 2.0 3.2 2 5
r 0.030213 0 2 tcp 40 ------- 0 0.0 3.0 0 0
+ 0.030213 2 3 tcp 40 ------- 0 0.0 3.0 0 0
- 0.030213 2 3 tcp 40 ------- 0 0.0 3.0 0 0
r 0.030213 1 2 tcp 40 ------- 1 1.0 3.1 0 1
+ 0.030213 2 3 tcp 40 ------- 1 1.0 3.1 0 1
- 0.030373 2 3 tcp 40 ------- 1 1.0 3.1 0 1
r 0.03448 2 3 tcp 1040 ------- 2 2.0 3.2 1 4
+ 0.03448 3 2 ack 40 ------- 2 3.2 2.0 1 6
- 0.03448 3 2 ack 40 ------- 2 3.2 2.0 1 6
r 0.03864 2 3 tcp 1040 ------- 2 2.0 3.2 2 5
+ 0.03864 3 2 ack 40 ------- 2 3.2 2.0 2 7
- 0.03864 3 2 ack 40 ------- 2 3.2 2.0 2 7
r 0.040373 2 3 tcp 40 ------- 0 0.0 3.0 0 0
+ 0.040373 3 2 ack 40 ------- 0 3.0 0.0 0 8
- 0.040373 3 2 ack 40 ------- 0 3.0 0.0 0 8
r 0.040533 2 3 tcp 40 ------- 1 1.0 3.1 0 1
+ 0.040533 3 2 ack 40 ------- 1 3.1 1.0 0 9
- 0.040533 3 2 ack 40 ------- 1 3.1 1.0 0 9
r 0.04464 3 2 ack 40 ------- 2 3.2 2.0 1 6
+ 0.04464 2 3 tcp 1040 ------- 2 2.0 3.2 3 10
- 0.04464 2 3 tcp 1040 ------- 2 2.0 3.2 3 10
+ 0.04464 2 3 tcp 1040 ------- 2 2.0 3.2 4 11
- 0.0488 2 3 tcp 1040 ------- 2 2.0 3.2 4 11
r 0.0488 3 2 ack 40 ------- 2 3.2 2.0 2 7
+ 0.0488 2 3 tcp 1040 ------- 2 2.0 3.2 5 12
+ 0.0488 2 3 tcp 1040 ------- 2 2.0 3.2 6 13
r 0.050533 3 2 ack 40 ------- 0 3.0 0.0 0 8
+ 0.050533 2 0 ack 40 ------- 0 3.0 0.0 0 8
- 0.050533 2 0 ack 40 ------- 0 3.0 0.0 0 8
r 0.050693 3 2 ack 40 ------- 1 3.1 1.0 0 9
+ 0.050693 2 1 ack 40 ------- 1 3.1 1.0 0 9
- 0.050693 2 1 ack 40 ------- 1 3.1 1.0 0 9
- 0.05296 2 3 tcp 1040 ------- 2 2.0 3.2 5 12
- 0.05712 2 3 tcp 1040 ------- 2 2.0 3.2 6 13
r 0.0588 2 3 tcp 1040 ------- 2 2.0 3.2 3 10
+ 0.0588 3 2 ack 40 ------- 2 3.2 2.0 3 14
- 0.0588 3 2 ack 40 ------- 2 3.2 2.0 3 14
r 0.06296 2 3 tcp 1040 ------- 2 2.0 3.2 4 11
+ 0.06296 3 2 ack 40 ------- 2 3.2 2.0 4 15
- 0.06296 3 2 ack 40 ------- 2 3.2 2.0 4 15
r 0.06712 2 3 tcp 1040 ------- 2 2.0 3.2 5 12
+ 0.06712 3 2 ack 40 ------- 2 3.2 2.0 5 16
- 0.06712 3 2 ack 40 ------- 2 3.2 2.0 5 16
r 0.06896 3 2 ack 40 ------- 2 3.2 2.0 3 14
+ 0.06896 2 3 tcp 1040 ------- 2 2.0 3.2 7 17
- 0.06896 2 3 tcp 1040 ------- 2 2.0 3.2 7 17
+ 0.06896 2 3 tcp 1040 ------- 2 2.0 3.2 8 18
r 0.07128 2 3 tcp 1040 ------- 2 2.0 3.2 6 13
+ 0.07128 3 2 ack 40 ------- 2 3.2 2.0 6 19
- 0.07128 3 2 ack 40 ------- 2 3.2 2.0 6 19
r 0.07312 3 2 ack 40 ------- 2 3.2 2.0 4 15
+ 0.07312 2 3 tcp 1040 ------- 2 2.0 3.2 9 20
+ 0.07312 2 3 tcp 1040 ------- 2 2.0 3.2 10 21
- 0.07312 2 3 tcp 1040 ------- 2 2.0 3.2 8 18
r 0.07728 3 2 ack 40 ------- 2 3.2 2.0 5 16
+ 0.07728 2 3 tcp 1040 ------- 2 2.0 3.2 11 22
+ 0.07728 2 3 tcp 1040 ------- 2 2.0 3.2 12 23
- 0.07728 2 3 tcp 1040 ------- 2 2.0 3.2 9 20
r 0.080747 2 0 ack 40 ------- 0 3.0 0.0 0 8
+ 0.080747 0 2 tcp 1040 ------- 0 0.0 3.0 1 24
- 0.080747 0 2 tcp 1040 ------- 0 0.0 3.0 1 24
+ 0.080747 0 2 tcp 1040 ------- 0 0.0 3.0 2 25
r 0.080907 2 1 ack 40 ------- 1 3.1 1.0 0 9
+ 0.080907 1 2 tcp 1040 ------- 1 1.0 3.1 1 26
- 0.080907 1 2 tcp 1040 ------- 1 1.0 3.1 1 26
+ 0.080907 1 2 tcp 1040 ------- 1 1.0 3.1 2 27
r 0.08144 3 2 ack 40 ------- 2 3.2 2.0 6 19
+ 0.08144 2 3 tcp 1040 ------- 2 2.0 3.2 13 28
+ 0.08144 2 3 tcp 1040 ------- 2 2.0 3.2 14 29
- 0.08144 2 3 tcp 1040 ------- 2 2.0 3.2 10 21
r 0.08312 2 3 tcp 1040 ------- 2 2.0 3.2 7 17
+ 0.08312 3 2 ack 40 ------- 2 3.2 2.0 7 30
- 0.08312 3 2 ack 40 ------- 2 3.2 2.0 7 30
- 0.0856 2 3 tcp 1040 ------- 2 2.0 3.2 11 22
- 0.086293 0 2 tcp 1040 ------- 0 0.0 3.0 2 25
- 0.086453 1 2 tcp 1040 ------- 1 1.0 3.1 2 27
r 0.08728 2 3 tcp 1040 ------- 2 2.0 3.2 8 18
+ 0.08728 3 2 ack 40 ------- 2 3.2 2.0 8 31
- 0.08728 3 2 ack 40 ------- 2 3.2 2.0 8 31
- 0.08976 2 3 tcp 1040 ------- 2 2.0 3.2 12 23
r 0.09144 2 3 tcp 1040 ------- 2 2.0 3.2 9 20
+ 0.09144 3 2 ack 40 ------- 2 3.2 2.0 9 32
- 0.09144 3 2 ack 40 ------- 2 3.2 2.0 9 32
r 0.09328 3 2 ack 40 ------- 2 3.2 2.0 7 30
+ 0.09328 2 3 tcp 1040 ------- 2 2.0 3.2 15 33
+ 0.09328 2 3 tcp 1040 ------- 2 2.0 3.2 16 34
- 0.09392 2 3 tcp 1040 ------- 2 2.0 3.2 13 28
r 0.0956 2 3 tcp 1040 ------- 2 2.0 3.2 10 21
+ 0.0956 3 2 ack 40 ------- 2 3.2 2.0 10 35
- 0.0956 3 2 ack 40 ------- 2 3.2 2.0 10 35
r 0.09744 3 2 ack 40 ------- 2 3.2 2.0 8 31
+ 0.09744 2 3 tcp 1040 ------- 2 2.0 3.2 17 36
+ 0.09744 2 3 tcp 1040 ------- 2 2.0 3.2 18 37
- 0.09808 2 3 tcp 1040 ------- 2 2.0 3.2 14 29
r 0.09976 2 3 tcp 1040 ------- 2 2.0 3.2 11 22
+ 0.09976 3 2 ack 40 ------- 2 3.2 2.0 11 38
- 0.09976 3 2 ack 40 ------- 2 3.2 2.0 11 38
r 0.1016 3 2 ack 40 ------- 2 3.2 2.0 9 32
+ 0.1016 2 3 tcp 1040 ------- 2 2.0 3.2 19 39
+ 0.1016 2 3 tcp 1040 ------- 2 2.0 3.2 20 40
- 0.10224 2 3 tcp 1040 ------- 2 2.0 3.2 15 33
r 0.10392 2 3 tcp 1040 ------- 2 2.0 3.2 12 23
+ 0.10392 3 2 ack 40 ------- 2 3.2 2.0 12 41
- 0.10392 3 2 ack 40 ------- 2 3.2 2.0 12 41
r 0.10576 3 2 ack 40 ------- 2 3.2 2.0 10 35
+ 0.10576 2 3 tcp 1040 ------- 2 2.0 3.2 21 42
+ 0.10576 2 3 tcp 1040 ------- 2 2.0 3.2 22 43
- 0.1064 2 3 tcp 1040 ------- 2 2.0 3.2 16 34
r 0.10808 2 3 tcp 1040 ------- 2 2.0 3.2 13 28
+ 0.10808 3 2 ack 40 ------- 2 3.2 2.0 13 44
- 0.10808 3 2 ack 40 ------- 2 3.2 2.0 13 44
r 0.10992 3 2 ack 40 ------- 2 3.2 2.0 11 38
+ 0.10992 2 3 tcp 1040 ------- 2 2.0 3.2 23 45
+ 0.10992 2 3 tcp 1040 ------- 2 2.0 3.2 24 46
- 0.11056 2 3 tcp 1040 ------- 2 2.0 3.2 17 36
r 0.11224 2 3 tcp 1040 ------- 2 2.0 3.2 14 29
+ 0.11224 3 2 ack 40 ------- 2 3.2 2.0 14 47
- 0.11224 3 2 ack 40 ------- 2 3.2 2.0 14 47
r 0.11408 3 2 ack 40 ------- 2 3.2 2.0 12 41
+ 0.11408 2 3 tcp 1040 ------- 2 2.0 3.2 25 48
+ 0.11408 2 3 tcp 1040 ------- 2 2.0 3.2 26 49
- 0.11472 2 3 tcp 1040 ------- 2 2.0 3.2 18 37
r 0.116293 0 2 tcp 1040 ------- 0 0.0 3.0 1 24
+ 0.116293 2 3 tcp 1040 ------- 0 0.0 3.0 1 24
r 0.1164 2 3 tcp 1040 ------- 2 2.0 3.2 15 33
+ 0.1164 3 2 ack 40 ------- 2 3.2 2.0 15 50
- 0.1164 3 2 ack 40 ------- 2 3.2 2.0 15 50
r 0.116453 1 2 tcp 1040 ------- 1 1.0 3.1 1 26
+ 0.116453 2 3 tcp 1040 ------- 1 1.0 3.1 1 26
r 0.11824 3 2 ack 40 ------- 2 3.2 2.0 13 44
+ 0.11824 2 3 tcp 1040 ------- 2 2.0 3.2 27 51
+ 0.11824 2 3 tcp 1040 ------- 2 2.0 3.2 28 52
- 0.11888 2 3 tcp 1040 ------- 2 2.0 3.2 19 39
r 0.12056 2 3 tcp 1040 ------- 2 2.0 3.2 16 34
+ 0.12056 3 2 ack 40 ------- 2 3.2 2.0 16 53
- 0.12056 3 2 ack 40 ------- 2 3.2 2.0 16 53
r 0.12184 0 2 tcp 1040 ------- 0 0.0 3.0 2 25
+ 0.12184 2 3 tcp 1040 ------- 0 0.0 3.0 2 25
r 0.122 1 2 tcp 1040 ------- 1 1.0 3.1 2 27
+ 0.122 2 3 tcp 1040 ------- 1 1.0 3.1 2 27
r 0.1224 3 2 ack 40 ------- 2 3.2 2.0 14 47
+ 0.1224 2 3 tcp 1040 ------- 2 2.0 3.2 29 54
+ 0.1224 2 3 tcp 1040 ------- 2 2.0 3.2 30 55
- 0.12304 2 3 tcp 1040 ------- 2 2.0 3.2 20 40
r 0.12472 2 3 tcp 1040 ------- 2 2.0 3.2 17 36
+ 0.12472 3 2 ack 40 ------- 2 3.2 2.0 17 56
- 0.12472 3 2 ack 40 ------- 2 3.2 2.0 17 56
r 0.12656 3 2 ack 40 ------- 2 3.2 2.0 15 50
+ 0.12656 2 3 tcp 1040 ------- 2 2.0 3.2 31 57
+ 0.12656 2 3 tcp 1040 ------- 2 2.0 3.2 32 58
- 0.1272 2 3 tcp 1040 ------- 2 2.0 3.2 21 42
r 0.12888 2 3 tcp 1040 ------- 2 2.0 3.2 18 37
+ 0.12888 3 2 ack 40 ------- 2 3.2 2.0 18 59
- 0.12888 3 2 ack 40 ------- 2 3.2 2.0 18 59
r 0.13072 3 2 ack 40 ------- 2 3.2 2.0 16 53
+ 0.13072 2 3 tcp 1040 ------- 2 2.0 3.2 33 60
+ 0.13072 2 3 tcp 1040 ------- 2 2.0 3.2 34 61
- 0.13136 2 3 tcp 1040 ------- 2 2.0 3.2 22 43
r 0.13304 2 3 tcp 1040 ------- 2 2.0 3.2 19 39
+ 0.13304 3 2 ack 40 ------- 2 3.2 2.0 19 62
- 0.13304 3 2 ack 40 ------- 2 3.2 2.0 19 62
r 0.13488 3 2 ack 40 ------- 2 3.2 2.0 17 56
+ 0.13488 2 3 tcp 1040 ------- 2 2.0 3.2 35 63
+ 0.13488 2 3 tcp 1040 ------- 2 2.0 3.2 36 64
- 0.13552 2 3 tcp 1040 ------- 2 2.0 3.2 23 45
r 0.1372 2 3 tcp 1040 ------- 2 2.0 3.2 20 40
+ 0.1372 3 2 ack 40 ------- 2 3.2 2.0 20 65
- 0.1372 3 2 ack 40 ------- 2 3.2 2.0 20 65
r 0.13904 3 2 ack 40 ------- 2 3.2 2.0 18 59
+ 0.13904 2 3 tcp 1040 ------- 2 2.0 3.2 37 66
+ 0.13904 2 3 tcp 1040 ------- 2 2.0 3.2 38 67
- 0.13968 2 3 tcp 1040 ------- 2 2.0 3.2 24 46
r 0.14136 2 3 tcp 1040 ------- 2 2.0 3.2 21 42
+ 0.14136 3 2 ack 40 ------- 2 3.2 2.0 21 68
- 0.14136 3 2 ack 40 ------- 2 3.2 2.0 21 68
r 0.1432 3 2 ack 40 ------- 2 3.2 2.0 19 62
+ 0.1432 2 3 tcp 1040 ------- 2 2.0 3.2 39 69
+ 0.1432 2 3 tcp 1040 ------- 2 2.0 3.2 40 70
- 0.14384 2 3 tcp 1040 ------- 2 2.0 3.2 25 48
r 0.14552 2 3 tcp 1040 ------- 2 2.0 3.2 22 43
+ 0.14552 3 2 ack 40 ------- 2 3.2 2.0 22 71
- 0.14552 3 2 ack 40 ------- 2 3.2 2.0 22 71
r 0.14736 3 2 ack 40 ------- 2 3.2 2.0 20 65
+ 0.14736 2 3 tcp 1040 ------- 2 2.0 3.2 41 72
+ 0.14736 2 3 tcp 1040 ------- 2 2.0 3.2 42 73
- 0.148 2 3 tcp 1040 ------- 2 2.0 3.2 26 49
r 0.14968 2 3 tcp 1040 ------- 2 2.0 3.2 23 45
+ 0.14968 3 2 ack 40 ------- 2 3.2 2.0 23 74
- 0.14968 3 2 ack 40 ------- 2 3.2 2.0 23 74
r 0.15152 3 2 ack 40 ------- 2 3.2 2.0 21 68
+ 0.15152 2 3 tcp 1040 ------- 2 2.0 3.2 43 75
+ 0.15152 2 3 tcp 1040 ------- 2 2.0 3.2 44 76
- 0.15216 2 3 tcp 1040 ------- 0 0.0 3.0 1 24
r 0.15384 2 3 tcp 1040 ------- 2 2.0 3.2 24 46
+ 0.15384 3 2 ack 40 ------- 2 3.2 2.0 24 77
- 0.15384 3 2 ack 40 ------- 2 3.2 2.0 24 77
r 0.15568 3 2 ack 40 ------- 2 3.2 2.0 22 71
+ 0.15568 2 3 tcp 1040 ------- 2 2.0 3.2 45 78
+ 0.15568 2 3 tcp 1040 ------- 2 2.0 3.2 46 79
- 0.15632 2 3 tcp 1040 ------- 1 1.0 3.1 1 26
r 0.158 2 3 tcp 1040 ------- 2 2.0 3.2 25 48
+ 0.158 3 2 ack 40 ------- 2 3.2 2.0 25 80
- 0.158 3 2 ack 40 ------- 2 3.2 2.0 25 80
r 0.15984 3 2 ack 40 ------- 2 3.2 2.0 23 74
+ 0.15984 2 3 tcp 1040 ------- 2 2.0 3.2 47 81
+ 0.15984 2 3 tcp 1040 ------- 2 2.0 3.2 48 82
- 0.16048 2 3 tcp 1040 ------- 2 2.0 3.2 27 51
r 0.16216 2 3 tcp 1040 ------- 2 2.0 3.2 26 49
+ 0.16216 3 2 ack 40 ------- 2 3.2 2.0 26 83
- 0.16216 3 2 ack 40 ------- 2 3.2 2.0 26 83
r 0.164 3 2 ack 40 ------- 2 3.2 2.0 24 77
+ 0.164 2 3 tcp 1040 ------- 2 2.0 3.2 49 84
+ 0.164 2 3 tcp 1040 ------- 2 2.0 3.2 50 85
- 0.16464 2 3 tcp 1040 ------- 2 2.0 3.2 28 52
r 0.16632 2 3 tcp 1040 ------- 0 0.0 3.0 1 24
+ 0.16632 3 2 ack 40 ------- 0 3.0 0.0 1 86
- 0.16632 3 2 ack 40 ------- 0 3.0 0.0 1 86
r 0.16816 3 2 ack 40 ------- 2 3.2 2.0 25 80
+ 0.16816 2 3 tcp 1040 ------- 2 2.0 3.2 51 87
+ 0.16816 2 3 tcp 1040 ------- 2 2.0 3.2 52 88
- 0.1688 2 3 tcp 1040 ------- 0 0.0 3.0 2 25
r 0.17048 2 3 tcp 1040 ------- 1 1.0 3.1 1 26
+ 0.17048 3 2 ack 40 ------- 1 3.1 1.0 1 89
- 0.17048 3 2 ack 40 ------- 1 3.1 1.0 1 89
r 0.17232 3 2 ack 40 ------- 2 3.2 2.0 26 83
+ 0.17232 2 3 tcp 1040 ------- 2 2.0 3.2 53 90
+ 0.17232 2 3 tcp 1040 ------- 2 2.0 3.2 54 91
- 0.17296 2 3 tcp 1040 ------- 1 1.0 3.1 2 27
r 0.17464 2 3 tcp 1040 ------- 2 2.0 3.2 27 51
+ 0.17464 3 2 ack 40 ------- 2 3.2 2.0 27 92
- 0.17464 3 2 ack 40 ------- 2 3.2 2.0 27 92
r 0.17648 3 2 ack 40 ------- 0 3.0 0.0 1 86
+ 0.17648 2 0 ack 40 ------- 0 3.0 0.0 1 86
- 0.17648 2 0 ack 40 ------- 0 3.0 0.0 1 86
- 0.17712 2 3 tcp 1040 ------- 2 2.0 3.2 29 54
r 0.1788 2 3 tcp 1040 ------- 2 2.0 3.2 28 52
+ 0.1788 3 2 ack 40 ------- 2 3.2 2.0 28 93
- 0.1788 3 2 ack 40 ------- 2 3.2 2.0 28 93
r 0.18064 3 2 ack 40 ------- 1 3.1 1.0 1 89
+ 0.18064 2 1 ack 40 ------- 1 3.1 1.0 1 89
- 0.18064 2 1 ack 40 ------- 1 3.1 1.0 1 89
- 0.18128 2 3 tcp 1040 ------- 2 2.0 3.2 30 55
r 0.18296 2 3 tcp 1040 ------- 0 0.0 3.0 2 25
+ 0.18296 3 2 ack 40 ------- 0 3.0 0.0 2 94
- 0.18296 3 2 ack 40 ------- 0 3.0 0.0 2 94
r 0.1848 3 2 ack 40 ------- 2 3.2 2.0 27 92
+ 0.1848 2 3 tcp 1040 ------- 2 2.0 3.2 55 95
+ 0.1848 2 3 tcp 1040 ------- 2 2.0 3.2 56 96
- 0.18544 2 3 tcp 1040 ------- 2 2.0 3.2 31 57
r 0.18712 2 3 tcp 1040 ------- 1 1.0 3.1 2 27
+ 0.18712 3 2 ack 40 ------- 1 3.1 1.0 2 97
- 0.18712 3 2 ack 40 ------- 1 3.1 1.0 2 97
r 0.18896 3 2 ack 40 ------- 2 3.2 2.0 28 93
+ 0.18896 2 3 tcp 1040 ------- 2 2.0 3.2 57 98
+ 0.18896 2 3 tcp 1040 ------- 2 2.0 3.2 58 99
- 0.1896 2 3 tcp 1040 ------- 2 2.0 3.2 32 58
r 0.19128 2 3 tcp 1040 ------- 2 2.0 3.2 29 54
+ 0.19128 3 2 ack 40 ------- 2 3.2 2.0 29 100
- 0.19128 3 2 ack 40 ------- 2 3.2 2.0 29 100
r 0.19312 3 2 ack 40 ------- 0 3.0 0.0 2 94
+ 0.19312 2 0 ack 40 ------- 0 3.0 0.0 2 94
- 0.19312 2 0 ack 40 ------- 0 3.0 0.0 2 94
- 0.19376 2 3 tcp 1040 ------- 2 2.0 3.2 33 60
r 0.19544 2 3 tcp 1040 ------- 2 2.0 3.2 30 55
+ 0.19544 3 2 ack 40 ------- 2 3.2 2.0 30 101
- 0.19544 3 2 ack 40 ------- 2 3.2 2.0 30 101
r 0.19728 3 2 ack 40 ------- 1 3.1 1.0 2 97
+ 0.19728 2 1 ack 40 ------- 1 3.1 1.0 2 97
- 0.19728 2 1 ack 40 ------- 1 3.1 1.0 2 97
- 0.19792 2 3 tcp 1040 ------- 2 2.0 3.2 34 61
r 0.1996 2 3 tcp 1040 ------- 2 2.0 3.2 31 57
+ 0.1996 3 2 ack 40 ------- 2 3.2 2.0 31 102
- 0.1996 3 2 ack 40 ------- 2 3.2 2.0 31 102
r 0.20144 3 2 ack 40 ------- 2 3.2 2.0 29 100
+ 0.20144 2 3 tcp 1040 ------- 2 2.0 3.2 59 103
+ 0.20144 2 3 tcp 1040 ------- 2 2.0 3.2 60 104
- 0.20208 2 3 tcp 1040 ------- 2 2.0 3.2 35 63
r 0.20376 2 3 tcp 1040 ------- 2 2.0 3.2 32 58
+ 0.20376 3 2 ack 40 ------- 2 3.2 2.0 32 105
- 0.20376 3 2 ack 40 ------- 2 3.2 2.0 32 105
r 0.2056 3 2 ack 40 ------- 2 3.2 2.0 30 101
+ 0.2056 2 3 tcp 1040 ------- 2 2.0 3.2 61 106
+ 0.2056 2 3 tcp 1040 ------- 2 2.0 3.2 62 107
- 0.20624 2 3 tcp 1040 ------- 2 2.0 3.2 36 64
r 0.206693 2 0 ack 40 ------- 0 3.0 0.0 1 86
+ 0.206693 0 2 tcp 1040 ------- 0 0.0 3.0 3 108
- 0.206693 0 2 tcp 1040 ------- 0 0.0 3.0 3 108
+ 0.206693 0 2 tcp 1040 ------- 0 0.0 3.0 4 109
r 0.20792 2 3 tcp 1040 ------- 2 2.0 3.2 33 60
+ 0.20792 3 2 ack 40 ------- 2 3.2 2.0 33 110
- 0.20792 3 2 ack 40 ------- 2 3.2 2.0 33 110
r 0.20976 3 2 ack 40 ------- 2 3.2 2.0 31 102
+ 0.20976 2 3 tcp 1040 ------- 2 2.0 3.2 63 111
+ 0.20976 2 3 tcp 1040 ------- 2 2.0 3.2 64 112
- 0.2104 2 3 tcp 1040 ------- 2 2.0 3.2 37 66
r 0.210853 2 1 ack 40 ------- 1 3.1 1.0 1 89
+ 0.210853 1 2 tcp 1040 ------- 1 1.0 3.1 3 113
- 0.210853 1 2 tcp 1040 ------- 1 1.0 3.1 3 113
+ 0.210853 1 2 tcp 1040 ------- 1 1.0 3.1 4 114
r 0.21208 2 3 tcp 1040 ------- 2 2.0 3.2 34 61
+ 0.21208 3 2 ack 40 ------- 2 3.2 2.0 34 115
- 0.21208 3 2 ack 40 ------- 2 3.2 2.0 34 115
- 0.21224 0 2 tcp 1040 ------- 0 0.0 3.0 4 109
r 0.21392 3 2 ack 40 ------- 2 3.2 2.0 32 105
+ 0.21392 2 3 tcp 1040 ------- 2 2.0 3.2 65 116
+ 0.21392 2 3 tcp 1040 ------- 2 2.0 3.2 66 117
- 0.21456 2 3 tcp 1040 ------- 2 2.0 3.2 38 67
r 0.21624 2 3 tcp 1040 ------- 2 2.0 3.2 35 63
+ 0.21624 3 2 ack 40 ------- 2 3.2 2.0 35 118
- 0.21624 3 2 ack 40 ------- 2 3.2 2.0 35 118
- 0.2164 1 2 tcp 1040 ------- 1 1.0 3.1 4 114
r 0.21808 3 2 ack 40 ------- 2 3.2 2.0 33 110
+ 0.21808 2 3 tcp 1040 ------- 2 2.0 3.2 67 119
+ 0.21808 2 3 tcp 1040 ------- 2 2.0 3.2 68 120
- 0.21872 2 3 tcp 1040 ------- 2 2.0 3.2 39 69
r 0.2204 2 3 tcp 1040 ------- 2 2.0 3.2 36 64
+ 0.2204 3 2 ack 40 ------- 2 3.2 2.0 36 121
- 0.2204 3 2 ack 40 ------- 2 3.2 2.0 36 121
r 0.22224 3 2 ack 40 ------- 2 3.2 2.0 34 115
+ 0.22224 2 3 tcp 1040 ------- 2 2.0 3.2 69 122
+ 0.22224 2 3 tcp 1040 ------- 2 2.0 3.2 70 123
- 0.22288 2 3 tcp 1040 ------- 2 2.0 3.2 40 70
r 0.223333 2 0 ack 40 ------- 0 3.0 0.0 2 94
+ 0.223333 0 2 tcp 1040 ------- 0 0.0 3.0 5 124
- 0.223333 0 2 tcp 1040 ------- 0 0.0 3.0 5 124
+ 0.223333 0 2 tcp 1040 ------- 0 0.0 3.0 6 125
r 0.22456 2 3 tcp 1040 ------- 2 2.0 3.2 37 66
+ 0.22456 3 2 ack 40 ------- 2 3.2 2.0 37 126
- 0.22456 3 2 ack 40 ------- 2 3.2 2.0 37 126
r 0.2264 3 2 ack 40 ------- 2 3.2 2.0 35 118
+ 0.2264 2 3 tcp 1040 ------- 2 2.0 3.2 71 127
+ 0.2264 2 3 tcp 1040 ------- 2 2.0 3.2 72 128
- 0.22704 2 3 tcp 1040 ------- 2 2.0 3.2 41 72
r 0.227493 2 1 ack 40 ------- 1 3.1 1.0 2 97
+ 0.227493 1 2 tcp 1040 ------- 1 1.0 3.1 5 129
- 0.227493 1 2 tcp 1040 ------- 1 1.0 3.1 5 129
+ 0.227493 1 2 tcp 1040 ------- 1 1.0 3.1 6 130
r 0.22872 2 3 tcp 1040 ------- 2 2.0 3.2 38 67
+ 0.22872 3 2 ack 40 ------- 2 3.2 2.0 38 131
- 0.22872 3 2 ack 40 ------- 2 3.2 2.0 38 131
- 0.22888 0 2 tcp 1040 ------- 0 0.0 3.0 6 125
r 0.23056 3 2 ack 40 ------- 2 3.2 2.0 36 121
+ 0.23056 2 3 tcp 1040 ------- 2 2.0 3.2 73 132
+ 0.23056 2 3 tcp 1040 ------- 2 2.0 3.2 74 133
- 0.2312 2 3 tcp 1040 ------- 2 2.0 3.2 42 73
r 0.23288 2 3 tcp 1040 ------- 2 2.0 3.2 39 69
+ 0.23288 3 2 ack 40 ------- 2 3.2 2.0 39 134
- 0.23288 3 2 ack 40 ------- 2 3.2 2.0 39 134
- 0.23304 1 2 tcp 1040 ------- 1 1.0 3.1 6 130
r 0.23472 3 2 ack 40 ------- 2 3.2 2.0 37 126
+ 0.23472 2 3 tcp 1040 ------- 2 2.0 3.2 75 135
+ 0.23472 2 3 tcp 1040 ------- 2 2.0 3.2 76 136
- 0.23536 2 3 tcp 1040 ------- 2 2.0 3.2 43 75
r 0.23704 2 3 tcp 1040 ------- 2 2.0 3.2 40 70
+ 0.23704 3 2 ack 40 ------- 2 3.2 2.0 40 137
- 0.23704 3 2 ack 40 ------- 2 3.2 2.0 40 137
r 0.23888 3 2 ack 40 ------- 2 3.2 2.0 38 131
+ 0.23888 2 3 tcp 1040 ------- 2 2.0 3.2 77 138
+ 0.23888 2 3 tcp 1040 ------- 2 2.0 3.2 78 139
- 0.23952 2 3 tcp 1040 ------- 2 2.0 3.2 44 76
r 0.2412 2 3 tcp 1040 ------- 2 2.0 3.2 41 72
+ 0.2412 3 2 ack 40 ------- 2 3.2 2.0 41 140
- 0.2412 3 2 ack 40 ------- 2 3.2 2.0 41 140
r 0.24224 0 2 tcp 1040 ------- 0 0.0 3.0 3 108
+ 0.24224 2 3 tcp 1040 ------- 0 0.0 3.0 3 108
r 0.24304 3 2 ack 40 ------- 2 3.2 2.0 39 134
+ 0.24304 2 3 tcp 1040 ------- 2 2.0 3.2 79 141
+ 0.24304 2 3 tcp 1040 ------- 2 2.0 3.2 80 142
- 0.24368 2 3 tcp 1040 ------- 2 2.0 3.2 45 78
r 0.24536 2 3 tcp 1040 ------- 2 2.0 3.2 42 73
+ 0.24536 3 2 ack 40 ------- 2 3.2 2.0 42 143
- 0.24536 3 2 ack 40 ------- 2 3.2 2.0 42 143
r 0.2464 1 2 tcp 1040 ------- 1 1.0 3.1 3 113
+ 0.2464 2 3 tcp 1040 ------- 1 1.0 3.1 3 113
r 0.2472 3 2 ack 40 ------- 2 3.2 2.0 40 137
+ 0.2472 2 3 tcp 1040 ------- 2 2.0 3.2 81 144
+ 0.2472 2 3 tcp 1040 ------- 2 2.0 3.2 82 145
r 0.247787 0 2 tcp 1040 ------- 0 0.0 3.0 4 109
+ 0.247787 2 3 tcp 1040 ------- 0 0.0 3.0 4 109
- 0.24784 2 3 tcp 1040 ------- 2 2.0 3.2 46 79
r 0.24952 2 3 tcp 1040 ------- 2 2.0 3.2 43 75
+ 0.24952 3 2 ack 40 ------- 2 3.2 2.0 43 146
- 0.24952 3 2 ack 40 ------- 2 3.2 2.0 43 146
r 0.25136 3 2 ack 40 ------- 2 3.2 2.0 41 140
+ 0.25136 2 3 tcp 1040 ------- 2 2.0 3.2 83 147
+ 0.25136 2 3 tcp 1040 ------- 2 2.0 3.2 84 148
r 0.251947 1 2 tcp 1040 ------- 1 1.0 3.1 4 114
+ 0.251947 2 3 tcp 1040 ------- 1 1.0 3.1 4 114
- 0.252 2 3 tcp 1040 ------- 2 2.0 3.2 47 81
r 0.25368 2 3 tcp 1040 ------- 2 2.0 3.2 44 76
+ 0.25368 3 2 ack 40 ------- 2 3.2 2.0 44 149
- 0.25368 3 2 ack 40 ------- 2 3.2 2.0 44 149
r 0.25552 3 2 ack 40 ------- 2 3.2 2.0 42 143
+ 0.25552 2 3 tcp 1040 ------- 2 2.0 3.2 85 150
+ 0.25552 2 3 tcp 1040 ------- 2 2.0 3.2 86 151
- 0.25616 2 3 tcp 1040 ------- 2 2.0 3.2 48 82
r 0.25784 2 3 tcp 1040 ------- 2 2.0 3.2 45 78
+ 0.25784 3 2 ack 40 ------- 2 3.2 2.0 45 152
- 0.25784 3 2 ack 40 ------- 2 3.2 2.0 45 152
r 0.25888 0 2 tcp 1040 ------- 0 0.0 3.0 5 124
+ 0.25888 2 3 tcp 1040 ------- 0 0.0 3.0 5 124
r 0.25968 3 2 ack 40 ------- 2 3.2 2.0 43 146
+ 0.25968 2 3 tcp 1040 ------- 2 2.0 3.2 87 153
+ 0.25968 2 3 tcp 1040 ------- 2 2.0 3.2 88 154
- 0.26032 2 3 tcp 1040 ------- 2 2.0 3.2 49 84
r 0.262 2 3 tcp 1040 ------- 2 2.0 3.2 46 79
+ 0.262 3 2 ack 40 ------- 2 3.2 2.0 46 155
- 0.262 3 2 ack 40 ------- 2 3.2 2.0 46 155
r 0.26304 1 2 tcp 1040 ------- 1 1.0 3.1 5 129
+ 0.26304 2 3 tcp 1040 ------- 1 1.0 3.1 5 129
r 0.26384 3 2 ack 40 ------- 2 3.2 2.0 44 149
+ 0.26384 2 3 tcp 1040 ------- 2 2.0 3.2 89 156
+ 0.26384 2 3 tcp 1040 ------- 2 2.0 3.2 90 157
r 0.264427 0 2 tcp 1040 ------- 0 0.0 3.0 6 125
+ 0.264427 2 3 tcp 1040 ------- 0 0.0 3.0 6 125
- 0.26448 2 3 tcp 1040 ------- 2 2.0 3.2 50 85
r 0.26616 2 3 tcp 1040 ------- 2 2.0 3.2 47 81
+ 0.26616 3 2 ack 40 ------- 2 3.2 2.0 47 158
- 0.26616 3 2 ack 40 ------- 2 3.2 2.0 47 158
r 0.268 3 2 ack 40 ------- 2 3.2 2.0 45 152
+ 0.268 2 3 tcp 1040 ------- 2 2.0 3.2 91 159
+ 0.268 2 3 tcp 1040 ------- 2 2.0 3.2 92 160
r 0.268587 1 2 tcp 1040 ------- 1 1.0 3.1 6 130
+ 0.268587 2 3 tcp 1040 ------- 1 1.0 3.1 6 130
d 0.268587 2 3 tcp 1040 ------- 1 1.0 3.1 6 130
- 0.26864 2 3 tcp 1040 ------- 2 2.0 3.2 51 87
r 0.27032 2 3 tcp 1040 ------- 2 2.0 3.2 48 82
+ 0.27032 3 2 ack 40 ------- 2 3.2 2.0 48 161
- 0.27032 3 2 ack 40 ------- 2 3.2 2.0 48 161
r 0.27216 3 2 ack 40 ------- 2 3.2 2.0 46 155
+ 0.27216 2 3 tcp 1040 ------- 2 2.0 3.2 93 162
+ 0.27216 2 3 tcp 1040 ------- 2 2.0 3.2 94 163
d 0.27216 2 3 tcp 1040 ------- 2 2.0 3.2 94 163
- 0.2728 2 3 tcp 1040 ------- 2 2.0 3.2 52 88
r 0.27448 2 3 tcp 1040 ------- 2 2.0 3.2 49 84
+ 0.27448 3 2 ack 40 ------- 2 3.2 2.0 49 164
- 0.27448 3 2 ack 40 ------- 2 3.2 2.0 49 164
r 0.27632 3 2 ack 40 ------- 2 3.2 2.0 47 158
+ 0.27632 2 3 tcp 1040 ------- 2 2.0 3.2 95 165
+ 0.27632 2 3 tcp 1040 ------- 2 2.0 3.2 96 166
d 0.27632 2 3 tcp 1040 ------- 2 2.0 3.2 96 166
- 0.27696 2 3 tcp 1040 ------- 2 2.0 3.2 53 90
r 0.27864 2 3 tcp 1040 ------- 2 2.0 3.2 50 85
+ 0.27864 3 2 ack 40 ------- 2 3.2 2.0 50 167
- 0.27864 3 2 ack 40 ------- 2 3.2 2.0 50 167
r 0.28048 3 2 ack 40 ------- 2 3.2 2.0 48 161
+ 0.28048 2 3 tcp 1040 ------- 2 2.0 3.2 97 168
+ 0.28048 2 3 tcp 1040 ------- 2 2.0 3.2 98 169
d 0.28048 2 3 tcp 1040 ------- 2 2.0 3.2 98 169
- 0.28112 2 3 tcp 1040 ------- 2 2.0 3.2 54 91
r 0.2828 2 3 tcp 1040 ------- 2 2.0 3.2 51 87
+ 0.2828 3 2 ack 40 ------- 2 3.2 2.0 51 170
- 0.2828 3 2 ack 40 ------- 2 3.2 2.0 51 170
r 0.28464 3 2 ack 40 ------- 2 3.2 2.0 49 164
+ 0.28464 2 3 tcp 1040 ------- 2 2.0 3.2 99 171
- 0.28528 2 3 tcp 1040 ------- 2 2.0 3.2 55 95
r 0.28696 2 3 tcp 1040 ------- 2 2.0 3.2 52 88
+ 0.28696 3 2 ack 40 ------- 2 3.2 2.0 52 172
- 0.28696 3 2 ack 40 ------- 2 3.2 2.0 52 172
r 0.2888 3 2 ack 40 ------- 2 3.2 2.0 50 167
+ 0.2888 2 3 tcp 1040 ------- 2 2.0 3.2 100 173
- 0.28944 2 3 tcp 1040 ------- 2 2.0 3.2 56 96
r 0.29112 2 3 tcp 1040 ------- 2 2.0 3.2 53 90
+ 0.29112 3 2 ack 40 ------- 2 3.2 2.0 53 174
- 0.29112 3 2 ack 40 ------- 2 3.2 2.0 53 174
r 0.29296 3 2 ack 40 ------- 2 3.2 2.0 51 170
+ 0.29296 2 3 tcp 1040 ------- 2 2.0 3.2 101 175
- 0.2936 2 3 tcp 1040 ------- 2 2.0 3.2 57 98
r 0.29528 2 3 tcp 1040 ------- 2 2.0 3.2 54 91
+ 0.29528 3 2 ack 40 ------- 2 3.2 2.0 54 176
- 0.29528 3 2 ack 40 ------- 2 3.2 2.0 54 176
r 0.29712 3 2 ack 40 ------- 2 3.2 2.0 52 172
+ 0.29712 2 3 tcp 1040 ------- 2 2.0 3.2 102 177
- 0.29776 2 3 tcp 1040 ------- 2 2.0 3.2 58 99
r 0.29944 2 3 tcp 1040 ------- 2 2.0 3.2 55 95
+ 0.29944 3 2 ack 40 ------- 2 3.2 2.0 55 178
- 0.29944 3 2 ack 40 ------- 2 3.2 2.0 55 178
r 0.30128 3 2 ack 40 ------- 2 3.2 2.0 53 174
+ 0.30128 2 3 tcp 1040 ------- 2 2.0 3.2 103 179
- 0.30192 2 3 tcp 1040 ------- 2 2.0 3.2 59 103
r 0.3036 2 3 tcp 1040 ------- 2 2.0 3.2 56 96
+ 0.3036 3 2 ack 40 ------- 2 3.2 2.0 56 180
- 0.3036 3 2 ack 40 ------- 2 3.2 2.0 56 180
r 0.30544 3 2 ack 40 ------- 2 3.2 2.0 54 176
+ 0.30544 2 3 tcp 1040 ------- 2 2.0 3.2 104 181
- 0.30608 2 3 tcp 1040 ------- 2 2.0 3.2 60 104
r 0.30776 2 3 tcp 1040 ------- 2 2.0 3.2 57 98
+ 0.30776 3 2 ack 40 ------- 2 3.2 2.0 57 182
- 0.30776 3 2 ack 40 ------- 2 3.2 2.0 57 182
r 0.3096 3 2 ack 40 ------- 2 3.2 2.0 55 178
+ 0.3096 2 3 tcp 1040 ------- 2 2.0 3.2 105 183
- 0.31024 2 3 tcp 1040 ------- 2 2.0 3.2 61 106
r 0.31192 2 3 tcp 1040 ------- 2 2.0 3.2 58 99
+ 0.31192 3 2 ack 40 ------- 2 3.2 2.0 58 184
- 0.31192 3 2 ack 40 ------- 2 3.2 2.0 58 184
r 0.31376 3 2 ack 40 ------- 2 3.2 2.0 56 180
+ 0.31376 2 3 tcp 1040 ------- 2 2.0 3.2 106 185
- 0.3144 2 3 tcp 1040 ------- 2 2.0 3.2 62 107
r 0.31608 2 3 tcp 1040 ------- 2 2.0 3.2 59 103
+ 0.31608 3 2 ack 40 ------- 2 3.2 2.0 59 186
- 0.31608 3 2 ack 40 ------- 2 3.2 2.0 59 186
r 0.31792 3 2 ack 40 ------- 2 3.2 2.0 57 182
+ 0.31792 2 3 tcp 1040 ------- 2 2.0 3.2 107 187
- 0.31856 2 3 tcp 1040 ------- 2 2.0 3.2 63 111
r 0.32024 2 3 tcp 1040 ------- 2 2.0 3.2 60 104
+ 0.32024 3 2 ack 40 ------- 2 3.2 2.0 60 188
- 0.32024 3 2 ack 40 ------- 2 3.2 2.0 60 188
r 0.32208 3 2 ack 40 ------- 2 3.2 2.0 58 184
+ 0.32208 2 3 tcp 1040 ------- 2 2.0 3.2 108 189
- 0.32272 2 3 tcp 1040 ------- 2 2.0 3.2 64 112
r 0.3244 2 3 tcp 1040 ------- 2 2.0 3.2 61 106
+ 0.3244 3 2 ack 40 ------- 2 3.2 2.0 61 190
- 0.3244 3 2 ack 40 ------- 2 3.2 2.0 61 190
r 0.32624 3 2 ack 40 ------- 2 3.2 2.0 59 186
+ 0.32624 2 3 tcp 1040 ------- 2 2.0 3.2 109 191
- 0.32688 2 3 tcp 1040 ------- 2 2.0 3.2 65 116
r 0.32856 2 3 tcp 1040 ------- 2 2.0 3.2 62 107
+ 0.32856 3 2 ack 40 ------- 2 3.2 2.0 62 192
- 0.32856 3 2 ack 40 ------- 2 3.2 2.0 62 192
r 0.3304 3 2 ack 40 ------- 2 3.2 2.0 60 188
+ 0.3304 2 3 tcp 1040 ------- 2 2.0 3.2 110 193
- 0.33104 2 3 tcp 1040 ------- 2 2.0 3.2 66 117
r 0.33272 2 3 tcp 1040 ------- 2 2.0 3.2 63 111
+ 0.33272 3 2 ack 40 ------- 2 3.2 2.0 63 194
- 0.33272 3 2 ack 40 ------- 2 3.2 2.0 63 194
r 0.33456 3 2 ack 40 ------- 2 3.2 2.0 61 190
+ 0.33456 2 3 tcp 1040 ------- 2 2.0 3.2 111 195
- 0.3352 2 3 tcp 1040 ------- 2 2.0 3.2 67 119
r 0.33688 2 3 tcp 1040 ------- 2 2.0 3.2 64 112
+ 0.33688 3 2 ack 40 ------- 2 3.2 2.0 64 196
- 0.33688 3 2 ack 40 ------- 2 3.2 2.0 64 196
r 0.33872 3 2 ack 40 ------- 2 3.2 2.0 62 192
+ 0.33872 2 3 tcp 1040 ------- 2 2.0 3.2 112 197
- 0.33936 2 3 tcp 1040 ------- 2 2.0 3.2 68 120
r 0.34104 2 3 tcp 1040 ------- 2 2.0 3.2 65 116
+ 0.34104 3 2 ack 40 ------- 2 3.2 2.0 65 198
- 0.34104 3 2 ack 40 ------- 2 3.2 2.0 65 198
r 0.34288 3 2 ack 40 ------- 2 3.2 2.0 63 194
+ 0.34288 2 3 tcp 1040 ------- 2 2.0 3.2 113 199
- 0.34352 2 3 tcp 1040 ------- 2 2.0 3.2 69 122
r 0.3452 2 3 tcp 1040 ------- 2 2.0 3.2 66 117
+ 0.3452 3 2 ack 40 ------- 2 3.2 2.0 66 200
- 0.3452 3 2 ack 40 ------- 2 3.2 2.0 66 200
r 0.34704 3 2 ack 40 ------- 2 3.2 2.0 64 196
+ 0.34704 2 3 tcp 1040 ------- 2 2.0 3.2 114 201
- 0.34768 2 3 tcp 1040 ------- 2 2.0 3.2 70 123
r 0.34936 2 3 tcp 1040 ------- 2 2.0 3.2 67 119
+ 0.34936 3 2 ack 40 ------- 2 3.2 2.0 67 202
- 0.34936 3 2 ack 40 ------- 2 3.2 2.0 67 202
r 0.3512 3 2 ack 40 ------- 2 3.2 2.0 65 198
+ 0.3512 2 3 tcp 1040 ------- 2 2.0 3.2 115 203
- 0.35184 2 3 tcp 1040 ------- 2 2.0 3.2 71 127
r 0.35352 2 3 tcp 1040 ------- 2 2.0 3.2 68 120
+ 0.35352 3 2 ack 40 ------- 2 3.2 2.0 68 204
- 0.35352 3 2 ack 40 ------- 2 3.2 2.0 68 204
r 0.35536 3 2 ack 40 ------- 2 3.2 2.0 66 200
+ 0.35536 2 3 tcp 1040 ------- 2 2.0 3.2 116 205
- 0.356 2 3 tcp 1040 ------- 2 2.0 3.2 72 128
r 0.35768 2 3 tcp 1040 ------- 2 2.0 3.2 69 122
+ 0.35768 3 2 ack 40 ------- 2 3.2 2.0 69 206
- 0.35768 3 2 ack 40 ------- 2 3.2 2.0 69 206
r 0.35952 3 2 ack 40 ------- 2 3.2 2.0 67 202
+ 0.35952 2 3 tcp 1040 ------- 2 2.0 3.2 117 207
- 0.36016 2 3 tcp 1040 ------- 2 2.0 3.2 73 132
r 0.36184 2 3 tcp 1040 ------- 2 2.0 3.2 70 123
+ 0.36184 3 2 ack 40 ------- 2 3.2 2.0 70 208
- 0.36184 3 2 ack 40 ------- 2 3.2 2.0 70 208
r 0.36368 3 2 ack 40 ------- 2 3.2 2.0 68 204
+ 0.36368 2 3 tcp 1040 ------- 2 2.0 3.2 118 209
- 0.36432 2 3 tcp 1040 ------- 2 2.0 3.2 74 133
r 0.366 2 3 tcp 1040 ------- 2 2.0 3.2 71 127
+ 0.366 3 2 ack 40 ------- 2 3.2 2.0 71 210
- 0.366 3 2 ack 40 ------- 2 3.2 2.0 71 210
r 0.36784 3 2 ack 40 ------- 2 3.2 2.0 69 206
+ 0.36784 2 3 tcp 1040 ------- 2 2.0 3.2 119 211
- 0.36848 2 3 tcp 1040 ------- 2 2.0 3.2 75 135
r 0.37016 2 3 tcp 1040 ------- 2 2.0 3.2 72 128
+ 0.37016 3 2 ack 40 ------- 2 3.2 2.0 72 212
- 0.37016 3 2 ack 40 ------- 2 3.2 2.0 72 212
r 0.372 3 2 ack 40 ------- 2 3.2 2.0 70 208
+ 0.372 2 3 tcp 1040 ------- 2 2.0 3.2 120 213
- 0.37264 2 3 tcp 1040 ------- 2 2.0 3.2 76 136
r 0.37432 2 3 tcp 1040 ------- 2 2.0 3.2 73 132
+ 0.37432 3 2 ack 40 ------- 2 3.2 2.0 73 214
- 0.37432 3 2 ack 40 ------- 2 3.2 2.0 73 214
r 0.37616 3 2 ack 40 ------- 2 3.2 2.0 71 210
+ 0.37616 2 3 tcp 1040 ------- 2 2.0 3.2 121 215
- 0.3768 2 3 tcp 1040 ------- 2 2.0 3.2 77 138
r 0.37848 2 3 tcp 1040 ------- 2 2.0 3.2 74 133
+ 0.37848 3 2 ack 40 ------- 2 3.2 2.0 74 216
- 0.37848 3 2 ack 40 ------- 2 3.2 2.0 74 216
r 0.38032 3 2 ack 40 ------- 2 3.2 2.0 72 212
+ 0.38032 2 3 tcp 1040 ------- 2 2.0 3.2 122 217
- 0.38096 2 3 tcp 1040 ------- 2 2.0 3.2 78 139
r 0.38264 2 3 tcp 1040 ------- 2 2.0 3.2 75 135
+ 0.38264 3 2 ack 40 ------- 2 3.2 2.0 75 218
- 0.38264 3 2 ack 40 ------- 2 3.2 2.0 75 218
r 0.38448 3 2 ack 40 ------- 2 3.2 2.0 73 214
+ 0.38448 2 3 tcp 1040 ------- 2 2.0 3.2 123 219
- 0.38512 2 3 tcp 1040 ------- 0 0.0 3.0 3 108
r 0.3868 2 3 tcp 1040 ------- 2 2.0 3.2 76 136
+ 0.3868 3 2 ack 40 ------- 2 3.2 2.0 76 220
- 0.3868 3 2 ack 40 ------- 2 3.2 2.0 76 220
r 0.38864 3 2 ack 40 ------- 2 3.2 2.0 74 216
+ 0.38864 2 3 tcp 1040 ------- 2 2.0 3.2 124 221
- 0.38928 2 3 tcp 1040 ------- 2 2.0 3.2 79 141
r 0.39096 2 3 tcp 1040 ------- 2 2.0 3.2 77 138
+ 0.39096 3 2 ack 40 ------- 2 3.2 2.0 77 222
- 0.39096 3 2 ack 40 ------- 2 3.2 2.0 77 222
r 0.3928 3 2 ack 40 ------- 2 3.2 2.0 75 218
+ 0.3928 2 3 tcp 1040 ------- 2 2.0 3.2 125 223
- 0.39344 2 3 tcp 1040 ------- 2 2.0 3.2 80 142
r 0.39512 2 3 tcp 1040 ------- 2 2.0 3.2 78 139
+ 0.39512 3 2 ack 40 ------- 2 3.2 2.0 78 224
- 0.39512 3 2 ack 40 ------- 2 3.2 2.0 78 224
r 0.39696 3 2 ack 40 ------- 2 3.2 2.0 76 220
+ 0.39696 2 3 tcp 1040 ------- 2 2.0 3.2 126 225
- 0.3976 2 3 tcp 1040 ------- 1 1.0 3.1 3 113
r 0.39928 2 3 tcp 1040 ------- 0 0.0 3.0 3 108
+ 0.39928 3 2 ack 40 ------- 0 3.0 0.0 3 226
- 0.39928 3 2 ack 40 ------- 0 3.0 0.0 3 226
r 0.40112 3 2 ack 40 ------- 2 3.2 2.0 77 222
+ 0.40112 2 3 tcp 1040 ------- 2 2.0 3.2 127 227
- 0.40176 2 3 tcp 1040 ------- 2 2.0 3.2 81 144
r 0.40344 2 3 tcp 1040 ------- 2 2.0 3.2 79 141
+ 0.40344 3 2 ack 40 ------- 2 3.2 2.0 79 228
- 0.40344 3 2 ack 40 ------- 2 3.2 2.0 79 228
r 0.40528 3 2 ack 40 ------- 2 3.2 2.0 78 224
+ 0.40528 2 3 tcp 1040 ------- 2 2.0 3.2 128 229
- 0.40592 2 3 tcp 1040 ------- 2 2.0 3.2 82 145
r 0.4076 2 3 tcp 1040 ------- 2 2.0 3.2 80 142
+ 0.4076 3 2 ack 40 ------- 2 3.2 2.0 80 230
- 0.4076 3 2 ack 40 ------- 2 3.2 2.0 80 230
r 0.40944 3 2 ack 40 ------- 0 3.0 0.0 3 226
+ 0.40944 2 0 ack 40 ------- 0 3.0 0.0 3 226
- 0.40944 2 0 ack 40 ------- 0 3.0 0.0 3 226