V -t * -v 1.0a5 -a 0
A -t * -n 1 -p 0 -o 0x7fffffff -c 30 -a 1
A -t * -h 1 -m 1073741823 -s 0
n -t * -a 0 -s 0 -S UP -v circle -c black -i black
n -t * -a 1 -s 1 -S UP -v circle -c black -i black
n -t * -a 2 -s 2 -S UP -v circle -c black -i black
n -t * -a 3 -s 3 -S UP -v circle -c black -i black
l -t * -s 0 -d 2 -S UP -r 1500000 -D 0.014999999999999999 -c black
l -t * -s 1 -d 2 -S UP -r 1500000 -D 0.014999999999999999 -c black
l -t * -s 2 -d 3 -S UP -r 2000000 -D 0.014999999999999999 -c black
+ -t 0 -s 0 -d 2 -p tcp -e 40 -c 0 -i 0 -a 0 -x {0.0 3.0 0 ------- null}
- -t 0 -s 0 -d 2 -p tcp -e 40 -c 0 -i 0 -a 0 -x {0.0 3.0 0 ------- null}
h -t 0 -s 0 -d 2 -p tcp -e 40 -c 0 -i 0 -a 0 -x {0.0 3.0 -1 ------- null}
+ -t 0 -s 1 -d 2 -p tcp -e 40 -c 1 -i 1 -a 1 -x {1.0 3.1 0 ------- null}
- -t 0 -s 1 -d 2 -p tcp -e 40 -c 1 -i 1 -a 1 -x {1.0 3.1 0 ------- null}
h -t 0 -s 1 -d 2 -p tcp -e 40 -c 1 -i 1 -a 1 -x {1.0 3.1 -1 ------- null}
r -t 0.0152133333333333 -s 0 -d 2 -p tcp -e 40 -c 0 -i 0 -a 0 -x {0.0 3.0 0 ------- null}
+ -t 0.0152133333333333 -s 2 -d 3 -p tcp -e 40 -c 0 -i 0 -a 0 -x {0.0 3.0 0 ------- null}
- -t 0.0152133333333333 -s 2 -d 3 -p tcp -e 40 -c 0 -i 0 -a 0 -x {0.0 3.0 0 ------- null}
h -t 0.0152133333333333 -s 2 -d 3 -p tcp -e 40 -c 0 -i 0 -a 0 -x {0.0 3.0 -1 ------- null}
r -t 0.0152133333333333 -s 1 -d 2 -p tcp -e 40 -c 1 -i 1 -a 1 -x {1.0 3.1 0 ------- null}
+ -t 0.0152133333333333 -s 2 -d 3 -p tcp -e 40 -c 1 -i 1 -a 1 -x {1.0 3.1 0 ------- null}
- -t 0.0153733333333333 -s 2 -d 3 -p tcp -e 40 -c 1 -i 1 -a 1 -x {1.0 3.1 0 ------- null}
h -t 0.0153733333333333 -s 2 -d 3 -p tcp -e 40 -c 1 -i 1 -a 1 -x {1.0 3.1 -1 ------- null}
r -t 0.0303733333333333 -s 2 -d 3 -p tcp -e 40 -c 0 -i 0 -a 0 -x {0.0 3.0 0 ------- null}
+ -t 0.0303733333333333 -s 3 -d 2 -p ack -e 40 -c 0 -i 2 -a 0 -x {3.0 0.0 0 ------- null}
- -t 0.0303733333333333 -s 3 -d 2 -p ack -e 40 -c 0 -i 2 -a 0 -x {3.0 0.0 0 ------- null}
h -t 0.0303733333333333 -s 3 -d 2 -p ack -e 40 -c 0 -i 2 -a 0 -x {3.0 0.0 -1 ------- null}
r -t 0.0305333333333333 -s 2 -d 3 -p tcp -e 40 -c 1 -i 1 -a 1 -x {1.0 3.1 0 ------- null}
+ -t 0.0305333333333333 -s 3 -d 2 -p ack -e 40 -c 1 -i 3 -a 1 -x {3.1 1.0 0 ------- null}
- -t 0.0305333333333333 -s 3 -d 2 -p ack -e 40 -c 1 -i 3 -a 1 -x {3.1 1.0 0 ------- null}
h -t 0.0305333333333333 -s 3 -d 2 -p ack -e 40 -c 1 -i 3 -a 1 -x {3.1 1.0 -1 ------- null}
r -t 0.0455333333333333 -s 3 -d 2 -p ack -e 40 -c 0 -i 2 -a 0 -x {3.0 0.0 0 ------- null}
+ -t 0.0455333333333333 -s 2 -d 0 -p ack -e 40 -c 0 -i 2 -a 0 -x {3.0 0.0 0 ------- null}
- -t 0.0455333333333333 -s 2 -d 0 -p ack -e 40 -c 0 -i 2 -a 0 -x {3.0 0.0 0 ------- null}
h -t 0.0455333333333333 -s 2 -d 0 -p ack -e 40 -c 0 -i 2 -a 0 -x {3.0 0.0 -1 ------- null}
r -t 0.0456933333333333 -s 3 -d 2 -p ack -e 40 -c 1 -i 3 -a 1 -x {3.1 1.0 0 ------- null}
+ -t 0.0456933333333333 -s 2 -d 1 -p ack -e 40 -c 1 -i 3 -a 1 -x {3.1 1.0 0 ------- null}
- -t 0.0456933333333333 -s 2 -d 1 -p ack -e 40 -c 1 -i 3 -a 1 -x {3.1 1.0 0 ------- null}
h -t 0.0456933333333333 -s 2 -d 1 -p ack -e 40 -c 1 -i 3 -a 1 -x {3.1 1.0 -1 ------- null}
r -t 0.0607466666666667 -s 2 -d 0 -p ack -e 40 -c 0 -i 2 -a 0 -x {3.0 0.0 0 ------- null}
+ -t 0.0607466666666667 -s 0 -d 2 -p tcp -e 1040 -c 0 -i 4 -a 0 -x {0.0 3.0 1 ------- null}
- -t 0.0607466666666667 -s 0 -d 2 -p tcp -e 1040 -c 0 -i 4 -a 0 -x {0.0 3.0 1 ------- null}
h -t 0.0607466666666667 -s 0 -d 2 -p tcp -e 1040 -c 0 -i 4 -a 0 -x {0.0 3.0 -1 ------- null}
+ -t 0.0607466666666667 -s 0 -d 2 -p tcp -e 1040 -c 0 -i 5 -a 0 -x {0.0 3.0 2 ------- null}
r -t 0.0609066666666667 -s 2 -d 1 -p ack -e 40 -c 1 -i 3 -a 1 -x {3.1 1.0 0 ------- null}
+ -t 0.0609066666666667 -s 1 -d 2 -p tcp -e 1040 -c 1 -i 6 -a 1 -x {1.0 3.1 1 ------- null}
- -t 0.0609066666666667 -s 1 -d 2 -p tcp -e 1040 -c 1 -i 6 -a 1 -x {1.0 3.1 1 ------- null}
h -t 0.0609066666666667 -s 1 -d 2 -p tcp -e 1040 -c 1 -i 6 -a 1 -x {1.0 3.1 -1 ------- null}
+ -t 0.0609066666666667 -s 1 -d 2 -p tcp -e 1040 -c 1 -i 7 -a 1 -x {1.0 3.1 2 ------- null}
- -t 0.0662933333333333 -s 0 -d 2 -p tcp -e 1040 -c 0 -i 5 -a 0 -x {0.0 3.0 2 ------- null}
h -t 0.0662933333333333 -s 0 -d 2 -p tcp -e 1040 -c 0 -i 5 -a 0 -x {0.0 3.0 -1 ------- null}
- -t 0.0664533333333333 -s 1 -d 2 -p tcp -e 1040 -c 1 -i 7 -a 1 -x {1.0 3.1 2 ------- null}
h -t 0.0664533333333333 -s 1 -d 2 -p tcp -e 1040 -c 1 -i 7 -a 1 -x {1.0 3.1 -1 ------- null}
r -t 0.0812933333333333 -s 0 -d 2 -p tcp -e 1040 -c 0 -i 4 -a 0 -x {0.0 3.0 1 ------- null}
+ -t 0.0812933333333333 -s 2 -d 3 -p tcp -e 1040 -c 0 -i 4 -a 0 -x {0.0 3.0 1 ------- null}
- -t 0.0812933333333333 -s 2 -d 3 -p tcp -e 1040 -c 0 -i 4 -a 0 -x {0.0 3.0 1 ------- null}
h -t 0.0812933333333333 -s 2 -d 3 -p tcp -e 1040 -c 0 -i 4 -a 0 -x {0.0 3.0 -1 ------- null}
r -t 0.0814533333333333 -s 1 -d 2 -p tcp -e 1040 -c 1 -i 6 -a 1 -x {1.0 3.1 1 ------- null}
+ -t 0.0814533333333333 -s 2 -d 3 -p tcp -e 1040 -c 1 -i 6 -a 1 -x {1.0 3.1 1 ------- null}
- -t 0.0854533333333333 -s 2 -d 3 -p tcp -e 1040 -c 1 -i 6 -a 1 -x {1.0 3.1 1 ------- null}
h -t 0.0854533333333333 -s 2 -d 3 -p tcp -e 1040 -c 1 -i 6 -a 1 -x {1.0 3.1 -1 ------- null}
r -t 0.08684 -s 0 -d 2 -p tcp -e 1040 -c 0 -i 5 -a 0 -x {0.0 3.0 2 ------- null}
+ -t 0.08684 -s 2 -d 3 -p tcp -e 1040 -c 0 -i 5 -a 0 -x {0.0 3.0 2 ------- null}
r -t 0.087 -s 1 -d 2 -p tcp -e 1040 -c 1 -i 7 -a 1 -x {1.0 3.1 2 ------- null}
+ -t 0.087 -s 2 -d 3 -p tcp -e 1040 -c 1 -i 7 -a 1 -x {1.0 3.1 2 ------- null}
- -t 0.0896133333333333 -s 2 -d 3 -p tcp -e 1040 -c 0 -i 5 -a 0 -x {0.0 3.0 2 ------- null}
h -t 0.0896133333333333 -s 2 -d 3 -p tcp -e 1040 -c 0 -i 5 -a 0 -x {0.0 3.0 -1 ------- null}
- -t 0.0937733333333333 -s 2 -d 3 -p tcp -e 1040 -c 1 -i 7 -a 1 -x {1.0 3.1 2 ------- null}
h -t 0.0937733333333333 -s 2 -d 3 -p tcp -e 1040 -c 1 -i 7 -a 1 -x {1.0 3.1 -1 ------- null}
r -t 0.100453333333333 -s 2 -d 3 -p tcp -e 1040 -c 0 -i 4 -a 0 -x {0.0 3.0 1 ------- null}
+ -t 0.100453333333333 -s 3 -d 2 -p ack -e 40 -c 0 -i 8 -a 0 -x {3.0 0.0 1 ------- null}
- -t 0.100453333333333 -s 3 -d 2 -p ack -e 40 -c 0 -i 8 -a 0 -x {3.0 0.0 1 ------- null}
h -t 0.100453333333333 -s 3 -d 2 -p ack -e 40 -c 0 -i 8 -a 0 -x {3.0 0.0 -1 ------- null}
r -t 0.104613333333333 -s 2 -d 3 -p tcp -e 1040 -c 1 -i 6 -a 1 -x {1.0 3.1 1 ------- null}
+ -t 0.104613333333333 -s 3 -d 2 -p ack -e 40 -c 1 -i 9 -a 1 -x {3.1 1.0 1 ------- null}
- -t 0.104613333333333 -s 3 -d 2 -p ack -e 40 -c 1 -i 9 -a 1 -x {3.1 1.0 1 ------- null}
h -t 0.104613333333333 -s 3 -d 2 -p ack -e 40 -c 1 -i 9 -a 1 -x {3.1 1.0 -1 ------- null}
r -t 0.108773333333333 -s 2 -d 3 -p tcp -e 1040 -c 0 -i 5 -a 0 -x {0.0 3.0 2 ------- null}
+ -t 0.108773333333333 -s 3 -d 2 -p ack -e 40 -c 0 -i 10 -a 0 -x {3.0 0.0 2 ------- null}
- -t 0.108773333333333 -s 3 -d 2 -p ack -e 40 -c 0 -i 10 -a 0 -x {3.0 0.0 2 ------- null}
h -t 0.108773333333333 -s 3 -d 2 -p ack -e 40 -c 0 -i 10 -a 0 -x {3.0 0.0 -1 ------- null}
r -t 0.112933333333333 -s 2 -d 3 -p tcp -e 1040 -c 1 -i 7 -a 1 -x {1.0 3.1 2 ------- null}
+ -t 0.112933333333333 -s 3 -d 2 -p ack -e 40 -c 1 -i 11 -a 1 -x {3.1 1.0 2 ------- null}
- -t 0.112933333333333 -s 3 -d 2 -p ack -e 40 -c 1 -i 11 -a 1 -x {3.1 1.0 2 ------- null}
h -t 0.112933333333333 -s 3 -d 2 -p ack -e 40 -c 1 -i 11 -a 1 -x {3.1 1.0 -1 ------- null}
r -t 0.115613333333333 -s 3 -d 2 -p ack -e 40 -c 0 -i 8 -a 0 -x {3.0 0.0 1 ------- null}
+ -t 0.115613333333333 -s 2 -d 0 -p ack -e 40 -c 0 -i 8 -a 0 -x {3.0 0.0 1 ------- null}
- -t 0.115613333333333 -s 2 -d 0 -p ack -e 40 -c 0 -i 8 -a 0 -x {3.0 0.0 1 ------- null}
h -t 0.115613333333333 -s 2 -d 0 -p ack -e 40 -c 0 -i 8 -a 0 -x {3.0 0.0 -1 ------- null}
r -t 0.119773333333333 -s 3 -d 2 -p ack -e 40 -c 1 -i 9 -a 1 -x {3.1 1.0 1 ------- null}
+ -t 0.119773333333333 -s 2 -d 1 -p ack -e 40 -c 1 -i 9 -a 1 -x {3.1 1.0 1 ------- null}
- -t 0.119773333333333 -s 2 -d 1 -p ack -e 40 -c 1 -i 9 -a 1 -x {3.1 1.0 1 ------- null}
h -t 0.119773333333333 -s 2 -d 1 -p ack -e 40 -c 1 -i 9 -a 1 -x {3.1 1.0 -1 ------- null}
r -t 0.123933333333333 -s 3 -d 2 -p ack -e 40 -c 0 -i 10 -a 0 -x {3.0 0.0 2 ------- null}
+ -t 0.123933333333333 -s 2 -d 0 -p ack -e 40 -c 0 -i 10 -a 0 -x {3.0 0.0 2 ------- null}
- -t 0.123933333333333 -s 2 -d 0 -p ack -e 40 -c 0 -i 10 -a 0 -x {3.0 0.0 2 ------- null}
h -t 0.123933333333333 -s 2 -d 0 -p ack -e 40 -c 0 -i 10 -a 0 -x {3.0 0.0 -1 ------- null}
r -t 0.128093333333333 -s 3 -d 2 -p ack -e 40 -c 1 -i 11 -a 1 -x {3.1 1.0 2 ------- null}
+ -t 0.128093333333333 -s 2 -d 1 -p ack -e 40 -c 1 -i 11 -a 1 -x {3.1 1.0 2 ------- null}
- -t 0.128093333333333 -s 2 -d 1 -p ack -e 40 -c 1 -i 11 -a 1 -x {3.1 1.0 2 ------- null}
h -t 0.128093333333333 -s 2 -d 1 -p ack -e 40 -c 1 -i 11 -a 1 -x {3.1 1.0 -1 ------- null}
r -t 0.130826666666667 -s 2 -d 0 -p ack -e 40 -c 0 -i 8 -a 0 -x {3.0 0.0 1 ------- null}
+ -t 0.130826666666667 -s 0 -d 2 -p tcp -e 1040 -c 0 -i 12 -a 0 -x {0.0 3.0 3 ------- null}
- -t 0.130826666666667 -s 0 -d 2 -p tcp -e 1040 -c 0 -i 12 -a 0 -x {0.0 3.0 3 ------- null}
h -t 0.130826666666667 -s 0 -d 2 -p tcp -e 1040 -c 0 -i 12 -a 0 -x {0.0 3.0 -1 ------- null}
+ -t 0.130826666666667 -s 0 -d 2 -p tcp -e 1040 -c 0 -i 13 -a 0 -x {0.0 3.0 4 ------- null}
r -t 0.134986666666667 -s 2 -d 1 -p ack -e 40 -c 1 -i 9 -a 1 -x {3.1 1.0 1 ------- null}
+ -t 0.134986666666667 -s 1 -d 2 -p tcp -e 1040 -c 1 -i 14 -a 1 -x {1.0 3.1 3 ------- null}
- -t 0.134986666666667 -s 1 -d 2 -p tcp -e 1040 -c 1 -i 14 -a 1 -x {1.0 3.1 3 ------- null}
h -t 0.134986666666667 -s 1 -d 2 -p tcp -e 1040 -c 1 -i 14 -a 1 -x {1.0 3.1 -1 ------- null}
+ -t 0.134986666666667 -s 1 -d 2 -p tcp -e 1040 -c 1 -i 15 -a 1 -x {1.0 3.1 4 ------- null}
- -t 0.136373333333333 -s 0 -d 2 -p tcp -e 1040 -c 0 -i 13 -a 0 -x {0.0 3.0 4 ------- null}
h -t 0.136373333333333 -s 0 -d 2 -p tcp -e 1040 -c 0 -i 13 -a 0 -x {0.0 3.0 -1 ------- null}
r -t 0.139146666666667 -s 2 -d 0 -p ack -e 40 -c 0 -i 10 -a 0 -x {3.0 0.0 2 ------- null}
+ -t 0.139146666666667 -s 0 -d 2 -p tcp -e 1040 -c 0 -i 16 -a 0 -x {0.0 3.0 5 ------- null}
+ -t 0.139146666666667 -s 0 -d 2 -p tcp -e 1040 -c 0 -i 17 -a 0 -x {0.0 3.0 6 ------- null}
- -t 0.140533333333333 -s 1 -d 2 -p tcp -e 1040 -c 1 -i 15 -a 1 -x {1.0 3.1 4 ------- null}
h -t 0.140533333333333 -s 1 -d 2 -p tcp -e 1040 -c 1 -i 15 -a 1 -x {1.0 3.1 -1 ------- null}
- -t 0.14192 -s 0 -d 2 -p tcp -e 1040 -c 0 -i 16 -a 0 -x {0.0 3.0 5 ------- null}
h -t 0.14192 -s 0 -d 2 -p tcp -e 1040 -c 0 -i 16 -a 0 -x {0.0 3.0 -1 ------- null}
r -t 0.143306666666667 -s 2 -d 1 -p ack -e 40 -c 1 -i 11 -a 1 -x {3.1 1.0 2 ------- null}
+ -t 0.143306666666667 -s 1 -d 2 -p tcp -e 1040 -c 1 -i 18 -a 1 -x {1.0 3.1 5 ------- null}
+ -t 0.143306666666667 -s 1 -d 2 -p tcp -e 1040 -c 1 -i 19 -a 1 -x {1.0 3.1 6 ------- null}
- -t 0.14608 -s 1 -d 2 -p tcp -e 1040 -c 1 -i 18 -a 1 -x {1.0 3.1 5 ------- null}
h -t 0.14608 -s 1 -d 2 -p tcp -e 1040 -c 1 -i 18 -a 1 -x {1.0 3.1 -1 ------- null}
- -t 0.147466666666667 -s 0 -d 2 -p tcp -e 1040 -c 0 -i 17 -a 0 -x {0.0 3.0 6 ------- null}
h -t 0.147466666666667 -s 0 -d 2 -p tcp -e 1040 -c 0 -i 17 -a 0 -x {0.0 3.0 -1 ------- null}
r -t 0.151373333333333 -s 0 -d 2 -p tcp -e 1040 -c 0 -i 12 -a 0 -x {0.0 3.0 3 ------- null}
+ -t 0.151373333333333 -s 2 -d 3 -p tcp -e 1040 -c 0 -i 12 -a 0 -x {0.0 3.0 3 ------- null}
- -t 0.151373333333333 -s 2 -d 3 -p tcp -e 1040 -c 0 -i 12 -a 0 -x {0.0 3.0 3 ------- null}
h -t 0.151373333333333 -s 2 -d 3 -p tcp -e 1040 -c 0 -i 12 -a 0 -x {0.0 3.0 -1 ------- null}
- -t 0.151626666666667 -s 1 -d 2 -p tcp -e 1040 -c 1 -i 19 -a 1 -x {1.0 3.1 6 ------- null}
h -t 0.151626666666667 -s 1 -d 2 -p tcp -e 1040 -c 1 -i 19 -a 1 -x {1.0 3.1 -1 ------- null}
r -t 0.155533333333333 -s 1 -d 2 -p tcp -e 1040 -c 1 -i 14 -a 1 -x {1.0 3.1 3 ------- null}
+ -t 0.155533333333333 -s 2 -d 3 -p tcp -e 1040 -c 1 -i 14 -a 1 -x {1.0 3.1 3 ------- null}
- -t 0.155533333333333 -s 2 -d 3 -p tcp -e 1040 -c 1 -i 14 -a 1 -x {1.0 3.1 3 ------- null}
h -t 0.155533333333333 -s 2 -d 3 -p tcp -e 1040 -c 1 -i 14 -a 1 -x {1.0 3.1 -1 ------- null}
r -t 0.15692 -s 0 -d 2 -p tcp -e 1040 -c 0 -i 13 -a 0 -x {0.0 3.0 4 ------- null}
+ -t 0.15692 -s 2 -d 3 -p tcp -e 1040 -c 0 -i 13 -a 0 -x {0.0 3.0 4 ------- null}
- -t 0.159693333333333 -s 2 -d 3 -p tcp -e 1040 -c 0 -i 13 -a 0 -x {0.0 3.0 4 ------- null}
h -t 0.159693333333333 -s 2 -d 3 -p tcp -e 1040 -c 0 -i 13 -a 0 -x {0.0 3.0 -1 ------- null}
r -t 0.16108 -s 1 -d 2 -p tcp -e 1040 -c 1 -i 15 -a 1 -x {1.0 3.1 4 ------- null}
+ -t 0.16108 -s 2 -d 3 -p tcp -e 1040 -c 1 -i 15 -a 1 -x {1.0 3.1 4 ------- null}
r -t 0.162466666666667 -s 0 -d 2 -p tcp -e 1040 -c 0 -i 16 -a 0 -x {0.0 3.0 5 ------- null}
+ -t 0.162466666666667 -s 2 -d 3 -p tcp -e 1040 -c 0 -i 16 -a 0 -x {0.0 3.0 5 ------- null}
- -t 0.163853333333333 -s 2 -d 3 -p tcp -e 1040 -c 1 -i 15 -a 1 -x {1.0 3.1 4 ------- null}
h -t 0.163853333333333 -s 2 -d 3 -p tcp -e 1040 -c 1 -i 15 -a 1 -x {1.0 3.1 -1 ------- null}
r -t 0.166626666666667 -s 1 -d 2 -p tcp -e 1040 -c 1 -i 18 -a 1 -x {1.0 3.1 5 ------- null}
+ -t 0.166626666666667 -s 2 -d 3 -p tcp -e 1040 -c 1 -i 18 -a 1 -x {1.0 3.1 5 ------- null}
- -t 0.168013333333333 -s 2 -d 3 -p tcp -e 1040 -c 0 -i 16 -a 0 -x {0.0 3.0 5 ------- null}
h -t 0.168013333333333 -s 2 -d 3 -p tcp -e 1040 -c 0 -i 16 -a 0 -x {0.0 3.0 -1 ------- null}
r -t 0.168013333333333 -s 0 -d 2 -p tcp -e 1040 -c 0 -i 17 -a 0 -x {0.0 3.0 6 ------- null}
+ -t 0.168013333333333 -s 2 -d 3 -p tcp -e 1040 -c 0 -i 17 -a 0 -x {0.0 3.0 6 ------- null}
r -t 0.170533333333333 -s 2 -d 3 -p tcp -e 1040 -c 0 -i 12 -a 0 -x {0.0 3.0 3 ------- null}
+ -t 0.170533333333333 -s 3 -d 2 -p ack -e 40 -c 0 -i 20 -a 0 -x {3.0 0.0 3 ------- null}
- -t 0.170533333333333 -s 3 -d 2 -p ack -e 40 -c 0 -i 20 -a 0 -x {3.0 0.0 3 ------- null}
h -t 0.170533333333333 -s 3 -d 2 -p ack -e 40 -c 0 -i 20 -a 0 -x {3.0 0.0 -1 ------- null}
- -t 0.172173333333333 -s 2 -d 3 -p tcp -e 1040 -c 1 -i 18 -a 1 -x {1.0 3.1 5 ------- null}
h -t 0.172173333333333 -s 2 -d 3 -p tcp -e 1040 -c 1 -i 18 -a 1 -x {1.0 3.1 -1 ------- null}
r -t 0.172173333333333 -s 1 -d 2 -p tcp -e 1040 -c 1 -i 19 -a 1 -x {1.0 3.1 6 ------- null}
+ -t 0.172173333333333 -s 2 -d 3 -p tcp -e 1040 -c 1 -i 19 -a 1 -x {1.0 3.1 6 ------- null}
r -t 0.174693333333333 -s 2 -d 3 -p tcp -e 1040 -c 1 -i 14 -a 1 -x {1.0 3.1 3 ------- null}
+ -t 0.174693333333333 -s 3 -d 2 -p ack -e 40 -c 1 -i 21 -a 1 -x {3.1 1.0 3 ------- null}
- -t 0.174693333333333 -s 3 -d 2 -p ack -e 40 -c 1 -i 21 -a 1 -x {3.1 1.0 3 ------- null}
h -t 0.174693333333333 -s 3 -d 2 -p ack -e 40 -c 1 -i 21 -a 1 -x {3.1 1.0 -1 ------- null}
- -t 0.176333333333333 -s 2 -d 3 -p tcp -e 1040 -c 0 -i 17 -a 0 -x {0.0 3.0 6 ------- null}
h -t 0.176333333333333 -s 2 -d 3 -p tcp -e 1040 -c 0 -i 17 -a 0 -x {0.0 3.0 -1 ------- null}
r -t 0.178853333333333 -s 2 -d 3 -p tcp -e 1040 -c 0 -i 13 -a 0 -x {0.0 3.0 4 ------- null}
+ -t 0.178853333333333 -s 3 -d 2 -p ack -e 40 -c 0 -i 22 -a 0 -x {3.0 0.0 4 ------- null}
- -t 0.178853333333333 -s 3 -d 2 -p ack -e 40 -c 0 -i 22 -a 0 -x {3.0 0.0 4 ------- null}
h -t 0.178853333333333 -s 3 -d 2 -p ack -e 40 -c 0 -i 22 -a 0 -x {3.0 0.0 -1 ------- null}
- -t 0.180493333333333 -s 2 -d 3 -p tcp -e 1040 -c 1 -i 19 -a 1 -x {1.0 3.1 6 ------- null}
h -t 0.180493333333333 -s 2 -d 3 -p tcp -e 1040 -c 1 -i 19 -a 1 -x {1.0 3.1 -1 ------- null}
r -t 0.183013333333333 -s 2 -d 3 -p tcp -e 1040 -c 1 -i 15 -a 1 -x {1.0 3.1 4 ------- null}
+ -t 0.183013333333333 -s 3 -d 2 -p ack -e 40 -c 1 -i 23 -a 1 -x {3.1 1.0 4 ------- null}
- -t 0.183013333333333 -s 3 -d 2 -p ack -e 40 -c 1 -i 23 -a 1 -x {3.1 1.0 4 ------- null}
h -t 0.183013333333333 -s 3 -d 2 -p ack -e 40 -c 1 -i 23 -a 1 -x {3.1 1.0 -1 ------- null}
r -t 0.185693333333333 -s 3 -d 2 -p ack -e 40 -c 0 -i 20 -a 0 -x {3.0 0.0 3 ------- null}
+ -t 0.185693333333333 -s 2 -d 0 -p ack -e 40 -c 0 -i 20 -a 0 -x {3.0 0.0 3 ------- null}
- -t 0.185693333333333 -s 2 -d 0 -p ack -e 40 -c 0 -i 20 -a 0 -x {3.0 0.0 3 ------- null}
h -t 0.185693333333333 -s 2 -d 0 -p ack -e 40 -c 0 -i 20 -a 0 -x {3.0 0.0 -1 ------- null}
r -t 0.187173333333333 -s 2 -d 3 -p tcp -e 1040 -c 0 -i 16 -a 0 -x {0.0 3.0 5 ------- null}
+ -t 0.187173333333333 -s 3 -d 2 -p ack -e 40 -c 0 -i 24 -a 0 -x {3.0 0.0 5 ------- null}
- -t 0.187173333333333 -s 3 -d 2 -p ack -e 40 -c 0 -i 24 -a 0 -x {3.0 0.0 5 ------- null}
h -t 0.187173333333333 -s 3 -d 2 -p ack -e 40 -c 0 -i 24 -a 0 -x {3.0 0.0 -1 ------- null}
r -t 0.189853333333333 -s 3 -d 2 -p ack -e 40 -c 1 -i 21 -a 1 -x {3.1 1.0 3 ------- null}
+ -t 0.189853333333333 -s 2 -d 1 -p ack -e 40 -c 1 -i 21 -a 1 -x {3.1 1.0 3 ------- null}
- -t 0.189853333333333 -s 2 -d 1 -p ack -e 40 -c 1 -i 21 -a 1 -x {3.1 1.0 3 ------- null}
h -t 0.189853333333333 -s 2 -d 1 -p ack -e 40 -c 1 -i 21 -a 1 -x {3.1 1.0 -1 ------- null}
r -t 0.191333333333333 -s 2 -d 3 -p tcp -e 1040 -c 1 -i 18 -a 1 -x {1.0 3.1 5 ------- null}
+ -t 0.191333333333333 -s 3 -d 2 -p ack -e 40 -c 1 -i 25 -a 1 -x {3.1 1.0 5 ------- null}
- -t 0.191333333333333 -s 3 -d 2 -p ack -e 40 -c 1 -i 25 -a 1 -x {3.1 1.0 5 ------- null}
h -t 0.191333333333333 -s 3 -d 2 -p ack -e 40 -c 1 -i 25 -a 1 -x {3.1 1.0 -1 ------- null}
r -t 0.194013333333333 -s 3 -d 2 -p ack -e 40 -c 0 -i 22 -a 0 -x {3.0 0.0 4 ------- null}
+ -t 0.194013333333333 -s 2 -d 0 -p ack -e 40 -c 0 -i 22 -a 0 -x {3.0 0.0 4 ------- null}
- -t 0.194013333333333 -s 2 -d 0 -p ack -e 40 -c 0 -i 22 -a 0 -x {3.0 0.0 4 ------- null}
h -t 0.194013333333333 -s 2 -d 0 -p ack -e 40 -c 0 -i 22 -a 0 -x {3.0 0.0 -1 ------- null}
r -t 0.195493333333333 -s 2 -d 3 -p tcp -e 1040 -c 0 -i 17 -a 0 -x {0.0 3.0 6 ------- null}
+ -t 0.195493333333333 -s 3 -d 2 -p ack -e 40 -c 0 -i 26 -a 0 -x {3.0 0.0 6 ------- null}
- -t 0.195493333333333 -s 3 -d 2 -p ack -e 40 -c 0 -i 26 -a 0 -x {3.0 0.0 6 ------- null}
h -t 0.195493333333333 -s 3 -d 2 -p ack -e 40 -c 0 -i 26 -a 0 -x {3.0 0.0 -1 ------- null}
r -t 0.198173333333333 -s 3 -d 2 -p ack -e 40 -c 1 -i 23 -a 1 -x {3.1 1.0 4 ------- null}
+ -t 0.198173333333333 -s 2 -d 1 -p ack -e 40 -c 1 -i 23 -a 1 -x {3.1 1.0 4 ------- null}
- -t 0.198173333333333 -s 2 -d 1 -p ack -e 40 -c 1 -i 23 -a 1 -x {3.1 1.0 4 ------- null}
h -t 0.198173333333333 -s 2 -d 1 -p ack -e 40 -c 1 -i 23 -a 1 -x {3.1 1.0 -1 ------- null}
r -t 0.199653333333333 -s 2 -d 3 -p tcp -e 1040 -c 1 -i 19 -a 1 -x {1.0 3.1 6 ------- null}
+ -t 0.199653333333333 -s 3 -d 2 -p ack -e 40 -c 1 -i 27 -a 1 -x {3.1 1.0 6 ------- null}
- -t 0.199653333333333 -s 3 -d 2 -p ack -e 40 -c 1 -i 27 -a 1 -x {3.1 1.0 6 ------- null}
h -t 0.199653333333333 -s 3 -d 2 -p ack -e 40 -c 1 -i 27 -a 1 -x {3.1 1.0 -1 ------- null}
r -t 0.200906666666667 -s 2 -d 0 -p ack -e 40 -c 0 -i 20 -a 0 -x {3.0 0.0 3 ------- null}
+ -t 0.200906666666667 -s 0 -d 2 -p tcp -e 1040 -c 0 -i 28 -a 0 -x {0.0 3.0 7 ------- null}
- -t 0.200906666666667 -s 0 -d 2 -p tcp -e 1040 -c 0 -i 28 -a 0 -x {0.0 3.0 7 ------- null}
h -t 0.200906666666667 -s 0 -d 2 -p tcp -e 1040 -c 0 -i 28 -a 0 -x {0.0 3.0 -1 ------- null}
+ -t 0.200906666666667 -s 0 -d 2 -p tcp -e 1040 -c 0 -i 29 -a 0 -x {0.0 3.0 8 ------- null}
r -t 0.202333333333333 -s 3 -d 2 -p ack -e 40 -c 0 -i 24 -a 0 -x {3.0 0.0 5 ------- null}
+ -t 0.202333333333333 -s 2 -d 0 -p ack -e 40 -c 0 -i 24 -a 0 -x {3.0 0.0 5 ------- null}
- -t 0.202333333333333 -s 2 -d 0 -p ack -e 40 -c 0 -i 24 -a 0 -x {3.0 0.0 5 ------- null}
h -t 0.202333333333333 -s 2 -d 0 -p ack -e 40 -c 0 -i 24 -a 0 -x {3.0 0.0 -1 ------- null}
r -t 0.205066666666667 -s 2 -d 1 -p ack -e 40 -c 1 -i 21 -a 1 -x {3.1 1.0 3 ------- null}
+ -t 0.205066666666667 -s 1 -d 2 -p tcp -e 1040 -c 1 -i 30 -a 1 -x {1.0 3.1 7 ------- null}
- -t 0.205066666666667 -s 1 -d 2 -p tcp -e 1040 -c 1 -i 30 -a 1 -x {1.0 3.1 7 ------- null}
h -t 0.205066666666667 -s 1 -d 2 -p tcp -e 1040 -c 1 -i 30 -a 1 -x {1.0 3.1 -1 ------- null}
+ -t 0.205066666666667 -s 1 -d 2 -p tcp -e 1040 -c 1 -i 31 -a 1 -x {1.0 3.1 8 ------- null}
- -t 0.206453333333333 -s 0 -d 2 -p tcp -e 1040 -c 0 -i 29 -a 0 -x {0.0 3.0 8 ------- null}
h -t 0.206453333333333 -s 0 -d 2 -p tcp -e 1040 -c 0 -i 29 -a 0 -x {0.0 3.0 -1 ------- null}
r -t 0.206493333333333 -s 3 -d 2 -p ack -e 40 -c 1 -i 25 -a 1 -x {3.1 1.0 5 ------- null}
+ -t 0.206493333333333 -s 2 -d 1 -p ack -e 40 -c 1 -i 25 -a 1 -x {3.1 1.0 5 ------- null}
- -t 0.206493333333333 -s 2 -d 1 -p ack -e 40 -c 1 -i 25 -a 1 -x {3.1 1.0 5 ------- null}
h -t 0.206493333333333 -s 2 -d 1 -p ack -e 40 -c 1 -i 25 -a 1 -x {3.1 1.0 -1 ------- null}
r -t 0.209226666666667 -s 2 -d 0 -p ack -e 40 -c 0 -i 22 -a 0 -x {3.0 0.0 4 ------- null}
+ -t 0.209226666666667 -s 0 -d 2 -p tcp -e 1040 -c 0 -i 32 -a 0 -x {0.0 3.0 9 ------- null}
+ -t 0.209226666666667 -s 0 -d 2 -p tcp -e 1040 -c 0 -i 33 -a 0 -x {0.0 3.0 10 ------- null}
- -t 0.210613333333333 -s 1 -d 2 -p tcp -e 1040 -c 1 -i 31 -a 1 -x {1.0 3.1 8 ------- null}
h -t 0.210613333333333 -s 1 -d 2 -p tcp -e 1040 -c 1 -i 31 -a 1 -x {1.0 3.1 -1 ------- null}
r -t 0.210653333333333 -s 3 -d 2 -p ack -e 40 -c 0 -i 26 -a 0 -x {3.0 0.0 6 ------- null}
+ -t 0.210653333333333 -s 2 -d 0 -p ack -e 40 -c 0 -i 26 -a 0 -x {3.0 0.0 6 ------- null}
- -t 0.210653333333333 -s 2 -d 0 -p ack -e 40 -c 0 -i 26 -a 0 -x {3.0 0.0 6 ------- null}
h -t 0.210653333333333 -s 2 -d 0 -p ack -e 40 -c 0 -i 26 -a 0 -x {3.0 0.0 -1 ------- null}
- -t 0.212 -s 0 -d 2 -p tcp -e 1040 -c 0 -i 32 -a 0 -x {0.0 3.0 9 ------- null}
h -t 0.212 -s 0 -d 2 -p tcp -e 1040 -c 0 -i 32 -a 0 -x {0.0 3.0 -1 ------- null}
r -t 0.213386666666667 -s 2 -d 1 -p ack -e 40 -c 1 -i 23 -a 1 -x {3.1 1.0 4 ------- null}
+ -t 0.213386666666667 -s 1 -d 2 -p tcp -e 1040 -c 1 -i 34 -a 1 -x {1.0 3.1 9 ------- null}
+ -t 0.213386666666667 -s 1 -d 2 -p tcp -e 1040 -c 1 -i 35 -a 1 -x {1.0 3.1 10 ------- null}
r -t 0.214813333333333 -s 3 -d 2 -p ack -e 40 -c 1 -i 27 -a 1 -x {3.1 1.0 6 ------- null}
+ -t 0.214813333333333 -s 2 -d 1 -p ack -e 40 -c 1 -i 27 -a 1 -x {3.1 1.0 6 ------- null}
- -t 0.214813333333333 -s 2 -d 1 -p ack -e 40 -c 1 -i 27 -a 1 -x {3.1 1.0 6 ------- null}
h -t 0.214813333333333 -s 2 -d 1 -p ack -e 40 -c 1 -i 27 -a 1 -x {3.1 1.0 -1 ------- null}
- -t 0.21616 -s 1 -d 2 -p tcp -e 1040 -c 1 -i 34 -a 1 -x {1.0 3.1 9 ------- null}
h -t 0.21616 -s 1 -d 2 -p tcp -e 1040 -c 1 -i 34 -a 1 -x {1.0 3.1 -1 ------- null}
r -t 0.217546666666667 -s 2 -d 0 -p ack -e 40 -c 0 -i 24 -a 0 -x {3.0 0.0 5 ------- null}
+ -t 0.217546666666667 -s 0 -d 2 -p tcp -e 1040 -c 0 -i 36 -a 0 -x {0.0 3.0 11 ------- null}
+ -t 0.217546666666667 -s 0 -d 2 -p tcp -e 1040 -c 0 -i 37 -a 0 -x {0.0 3.0 12 ------- null}
- -t 0.217546666666667 -s 0 -d 2 -p tcp -e 1040 -c 0 -i 33 -a 0 -x {0.0 3.0 10 ------- null}
h -t 0.217546666666667 -s 0 -d 2 -p tcp -e 1040 -c 0 -i 33 -a 0 -x {0.0 3.0 -1 ------- null}
r -t 0.221453333333333 -s 0 -d 2 -p tcp -e 1040 -c 0 -i 28 -a 0 -x {0.0 3.0 7 ------- null}
+ -t 0.221453333333333 -s 2 -d 3 -p tcp -e 1040 -c 0 -i 28 -a 0 -x {0.0 3.0 7 ------- null}
- -t 0.221453333333333 -s 2 -d 3 -p tcp -e 1040 -c 0 -i 28 -a 0 -x {0.0 3.0 7 ------- null}
h -t 0.221453333333333 -s 2 -d 3 -p tcp -e 1040 -c 0 -i 28 -a 0 -x {0.0 3.0 -1 ------- null}
r -t 0.221706666666667 -s 2 -d 1 -p ack -e 40 -c 1 -i 25 -a 1 -x {3.1 1.0 5 ------- null}
+ -t 0.221706666666667 -s 1 -d 2 -p tcp -e 1040 -c 1 -i 38 -a 1 -x {1.0 3.1 11 ------- null}
+ -t 0.221706666666667 -s 1 -d 2 -p tcp -e 1040 -c 1 -i 39 -a 1 -x {1.0 3.1 12 ------- null}
- -t 0.221706666666667 -s 1 -d 2 -p tcp -e 1040 -c 1 -i 35 -a 1 -x {1.0 3.1 10 ------- null}
h -t 0.221706666666667 -s 1 -d 2 -p tcp -e 1040 -c 1 -i 35 -a 1 -x {1.0 3.1 -1 ------- null}
- -t 0.223093333333333 -s 0 -d 2 -p tcp -e 1040 -c 0 -i 36 -a 0 -x {0.0 3.0 11 ------- null}
h -t 0.223093333333333 -s 0 -d 2 -p tcp -e 1040 -c 0 -i 36 -a 0 -x {0.0 3.0 -1 ------- null}
r -t 0.225613333333333 -s 1 -d 2 -p tcp -e 1040 -c 1 -i 30 -a 1 -x {1.0 3.1 7 ------- null}
+ -t 0.225613333333333 -s 2 -d 3 -p tcp -e 1040 -c 1 -i 30 -a 1 -x {1.0 3.1 7 ------- null}
- -t 0.225613333333333 -s 2 -d 3 -p tcp -e 1040 -c 1 -i 30 -a 1 -x {1.0 3.1 7 ------- null}
h -t 0.225613333333333 -s 2 -d 3 -p tcp -e 1040 -c 1 -i 30 -a 1 -x {1.0 3.1 -1 ------- null}
r -t 0.225866666666667 -s 2 -d 0 -p ack -e 40 -c 0 -i 26 -a 0 -x {3.0 0.0 6 ------- null}
+ -t 0.225866666666667 -s 0 -d 2 -p tcp -e 1040 -c 0 -i 40 -a 0 -x {0.0 3.0 13 ------- null}
+ -t 0.225866666666667 -s 0 -d 2 -p tcp -e 1040 -c 0 -i 41 -a 0 -x {0.0 3.0 14 ------- null}
r -t 0.227 -s 0 -d 2 -p tcp -e 1040 -c 0 -i 29 -a 0 -x {0.0 3.0 8 ------- null}
+ -t 0.227 -s 2 -d 3 -p tcp -e 1040 -c 0 -i 29 -a 0 -x {0.0 3.0 8 ------- null}
- -t 0.227253333333333 -s 1 -d 2 -p tcp -e 1040 -c 1 -i 38 -a 1 -x {1.0 3.1 11 ------- null}
h -t 0.227253333333333 -s 1 -d 2 -p tcp -e 1040 -c 1 -i 38 -a 1 -x {1.0 3.1 -1 ------- null}
- -t 0.22864 -s 0 -d 2 -p tcp -e 1040 -c 0 -i 37 -a 0 -x {0.0 3.0 12 ------- null}
h -t 0.22864 -s 0 -d 2 -p tcp -e 1040 -c 0 -i 37 -a 0 -x {0.0 3.0 -1 ------- null}
- -t 0.229773333333333 -s 2 -d 3 -p tcp -e 1040 -c 0 -i 29 -a 0 -x {0.0 3.0 8 ------- null}
h -t 0.229773333333333 -s 2 -d 3 -p tcp -e 1040 -c 0 -i 29 -a 0 -x {0.0 3.0 -1 ------- null}
r -t 0.230026666666667 -s 2 -d 1 -p ack -e 40 -c 1 -i 27 -a 1 -x {3.1 1.0 6 ------- null}
+ -t 0.230026666666667 -s 1 -d 2 -p tcp -e 1040 -c 1 -i 42 -a 1 -x {1.0 3.1 13 ------- null}
+ -t 0.230026666666667 -s 1 -d 2 -p tcp -e 1040 -c 1 -i 43 -a 1 -x {1.0 3.1 14 ------- null}
r -t 0.23116 -s 1 -d 2 -p tcp -e 1040 -c 1 -i 31 -a 1 -x {1.0 3.1 8 ------- null}
+ -t 0.23116 -s 2 -d 3 -p tcp -e 1040 -c 1 -i 31 -a 1 -x {1.0 3.1 8 ------- null}
r -t 0.232546666666667 -s 0 -d 2 -p tcp -e 1040 -c 0 -i 32 -a 0 -x {0.0 3.0 9 ------- null}
+ -t 0.232546666666667 -s 2 -d 3 -p tcp -e 1040 -c 0 -i 32 -a 0 -x {0.0 3.0 9 ------- null}
- -t 0.2328 -s 1 -d 2 -p tcp -e 1040 -c 1 -i 39 -a 1 -x {1.0 3.1 12 ------- null}
h -t 0.2328 -s 1 -d 2 -p tcp -e 1040 -c 1 -i 39 -a 1 -x {1.0 3.1 -1 ------- null}
- -t 0.233933333333333 -s 2 -d 3 -p tcp -e 1040 -c 1 -i 31 -a 1 -x {1.0 3.1 8 ------- null}
h -t 0.233933333333333 -s 2 -d 3 -p tcp -e 1040 -c 1 -i 31 -a 1 -x {1.0 3.1 -1 ------- null}
- -t 0.234186666666667 -s 0 -d 2 -p tcp -e 1040 -c 0 -i 40 -a 0 -x {0.0 3.0 13 ------- null}
h -t 0.234186666666667 -s 0 -d 2 -p tcp -e 1040 -c 0 -i 40 -a 0 -x {0.0 3.0 -1 ------- null}
r -t 0.236706666666667 -s 1 -d 2 -p tcp -e 1040 -c 1 -i 34 -a 1 -x {1.0 3.1 9 ------- null}
+ -t 0.236706666666667 -s 2 -d 3 -p tcp -e 1040 -c 1 -i 34 -a 1 -x {1.0 3.1 9 ------- null}
- -t 0.238093333333333 -s 2 -d 3 -p tcp -e 1040 -c 0 -i 32 -a 0 -x {0.0 3.0 9 ------- null}
h -t 0.238093333333333 -s 2 -d 3 -p tcp -e 1040 -c 0 -i 32 -a 0 -x {0.0 3.0 -1 ------- null}
r -t 0.238093333333333 -s 0 -d 2 -p tcp -e 1040 -c 0 -i 33 -a 0 -x {0.0 3.0 10 ------- null}
+ -t 0.238093333333333 -s 2 -d 3 -p tcp -e 1040 -c 0 -i 33 -a 0 -x {0.0 3.0 10 ------- null}
- -t 0.238346666666667 -s 1 -d 2 -p tcp -e 1040 -c 1 -i 42 -a 1 -x {1.0 3.1 13 ------- null}
h -t 0.238346666666667 -s 1 -d 2 -p tcp -e 1040 -c 1 -i 42 -a 1 -x {1.0 3.1 -1 ------- null}
- -t 0.239733333333333 -s 0 -d 2 -p tcp -e 1040 -c 0 -i 41 -a 0 -x {0.0 3.0 14 ------- null}
h -t 0.239733333333333 -s 0 -d 2 -p tcp -e 1040 -c 0 -i 41 -a 0 -x {0.0 3.0 -1 ------- null}
r -t 0.240613333333333 -s 2 -d 3 -p tcp -e 1040 -c 0 -i 28 -a 0 -x {0.0 3.0 7 ------- null}
+ -t 0.240613333333333 -s 3 -d 2 -p ack -e 40 -c 0 -i 44 -a 0 -x {3.0 0.0 7 ------- null}
- -t 0.240613333333333 -s 3 -d 2 -p ack -e 40 -c 0 -i 44 -a 0 -x {3.0 0.0 7 ------- null}
h -t 0.240613333333333 -s 3 -d 2 -p ack -e 40 -c 0 -i 44 -a 0 -x {3.0 0.0 -1 ------- null}
- -t 0.242253333333333 -s 2 -d 3 -p tcp -e 1040 -c 1 -i 34 -a 1 -x {1.0 3.1 9 ------- null}
h -t 0.242253333333333 -s 2 -d 3 -p tcp -e 1040 -c 1 -i 34 -a 1 -x {1.0 3.1 -1 ------- null}
r -t 0.242253333333333 -s 1 -d 2 -p tcp -e 1040 -c 1 -i 35 -a 1 -x {1.0 3.1 10 ------- null}
+ -t 0.242253333333333 -s 2 -d 3 -p tcp -e 1040 -c 1 -i 35 -a 1 -x {1.0 3.1 10 ------- null}
r -t 0.24364 -s 0 -d 2 -p tcp -e 1040 -c 0 -i 36 -a 0 -x {0.0 3.0 11 ------- null}
+ -t 0.24364 -s 2 -d 3 -p tcp -e 1040 -c 0 -i 36 -a 0 -x {0.0 3.0 11 ------- null}
- -t 0.243893333333333 -s 1 -d 2 -p tcp -e 1040 -c 1 -i 43 -a 1 -x {1.0 3.1 14 ------- null}
h -t 0.243893333333333 -s 1 -d 2 -p tcp -e 1040 -c 1 -i 43 -a 1 -x {1.0 3.1 -1 ------- null}
r -t 0.244773333333333 -s 2 -d 3 -p tcp -e 1040 -c 1 -i 30 -a 1 -x {1.0 3.1 7 ------- null}
+ -t 0.244773333333333 -s 3 -d 2 -p ack -e 40 -c 1 -i 45 -a 1 -x {3.1 1.0 7 ------- null}
- -t 0.244773333333333 -s 3 -d 2 -p ack -e 40 -c 1 -i 45 -a 1 -x {3.1 1.0 7 ------- null}
h -t 0.244773333333333 -s 3 -d 2 -p ack -e 40 -c 1 -i 45 -a 1 -x {3.1 1.0 -1 ------- null}
- -t 0.246413333333333 -s 2 -d 3 -p tcp -e 1040 -c 0 -i 33 -a 0 -x {0.0 3.0 10 ------- null}
h -t 0.246413333333333 -s 2 -d 3 -p tcp -e 1040 -c 0 -i 33 -a 0 -x {0.0 3.0 -1 ------- null}
r -t 0.2478 -s 1 -d 2 -p tcp -e 1040 -c 1 -i 38 -a 1 -x {1.0 3.1 11 ------- null}
+ -t 0.2478 -s 2 -d 3 -p tcp -e 1040 -c 1 -i 38 -a 1 -x {1.0 3.1 11 ------- null}
r -t 0.248933333333333 -s 2 -d 3 -p tcp -e 1040 -c 0 -i 29 -a 0 -x {0.0 3.0 8 ------- null}
+ -t 0.248933333333333 -s 3 -d 2 -p ack -e 40 -c 0 -i 46 -a 0 -x {3.0 0.0 8 ------- null}
- -t 0.248933333333333 -s 3 -d 2 -p ack -e 40 -c 0 -i 46 -a 0 -x {3.0 0.0 8 ------- null}
h -t 0.248933333333333 -s 3 -d 2 -p ack -e 40 -c 0 -i 46 -a 0 -x {3.0 0.0 -1 ------- null}
r -t 0.249186666666667 -s 0 -d 2 -p tcp -e 1040 -c 0 -i 37 -a 0 -x {0.0 3.0 12 ------- null}
+ -t 0.249186666666667 -s 2 -d 3 -p tcp -e 1040 -c 0 -i 37 -a 0 -x {0.0 3.0 12 ------- null}
- -t 0.250573333333333 -s 2 -d 3 -p tcp -e 1040 -c 1 -i 35 -a 1 -x {1.0 3.1 10 ------- null}
h -t 0.250573333333333 -s 2 -d 3 -p tcp -e 1040 -c 1 -i 35 -a 1 -x {1.0 3.1 -1 ------- null}
r -t 0.253093333333333 -s 2 -d 3 -p tcp -e 1040 -c 1 -i 31 -a 1 -x {1.0 3.1 8 ------- null}
+ -t 0.253093333333333 -s 3 -d 2 -p ack -e 40 -c 1 -i 47 -a 1 -x {3.1 1.0 8 ------- null}
- -t 0.253093333333333 -s 3 -d 2 -p ack -e 40 -c 1 -i 47 -a 1 -x {3.1 1.0 8 ------- null}
h -t 0.253093333333333 -s 3 -d 2 -p ack -e 40 -c 1 -i 47 -a 1 -x {3.1 1.0 -1 ------- null}
r -t 0.253346666666667 -s 1 -d 2 -p tcp -e 1040 -c 1 -i 39 -a 1 -x {1.0 3.1 12 ------- null}