+ 0 0 2 tcp 40 ------- 0 0.0 3.0 0 0
- 0 0 2 tcp 40 ------- 0 0.0 3.0 0 0
+ 0 1 2 tcp 40 ------- 1 1.0 3.1 0 1
- 0 1 2 tcp 40 ------- 1 1.0 3.1 0 1
r 0.015213 0 2 tcp 40 ------- 0 0.0 3.0 0 0
+ 0.015213 2 3 tcp 40 ------- 0 0.0 3.0 0 0
- 0.015213 2 3 tcp 40 ------- 0 0.0 3.0 0 0
r 0.015213 1 2 tcp 40 ------- 1 1.0 3.1 0 1
+ 0.015213 2 3 tcp 40 ------- 1 1.0 3.1 0 1
- 0.015373 2 3 tcp 40 ------- 1 1.0 3.1 0 1
r 0.030373 2 3 tcp 40 ------- 0 0.0 3.0 0 0
+ 0.030373 3 2 ack 40 ------- 0 3.0 0.0 0 2
- 0.030373 3 2 ack 40 ------- 0 3.0 0.0 0 2
r 0.030533 2 3 tcp 40 ------- 1 1.0 3.1 0 1
+ 0.030533 3 2 ack 40 ------- 1 3.1 1.0 0 3
- 0.030533 3 2 ack 40 ------- 1 3.1 1.0 0 3
r 0.045533 3 2 ack 40 ------- 0 3.0 0.0 0 2
+ 0.045533 2 0 ack 40 ------- 0 3.0 0.0 0 2
- 0.045533 2 0 ack 40 ------- 0 3.0 0.0 0 2
r 0.045693 3 2 ack 40 ------- 1 3.1 1.0 0 3
+ 0.045693 2 1 ack 40 ------- 1 3.1 1.0 0 3
- 0.045693 2 1 ack 40 ------- 1 3.1 1.0 0 3
r 0.060747 2 0 ack 40 ------- 0 3.0 0.0 0 2
+ 0.060747 0 2 tcp 1040 ------- 0 0.0 3.0 1 4
- 0.060747 0 2 tcp 1040 ------- 0 0.0 3.0 1 4
+ 0.060747 0 2 tcp 1040 ------- 0 0.0 3.0 2 5
r 0.060907 2 1 ack 40 ------- 1 3.1 1.0 0 3
+ 0.060907 1 2 tcp 1040 ------- 1 1.0 3.1 1 6
- 0.060907 1 2 tcp 1040 ------- 1 1.0 3.1 1 6
+ 0.060907 1 2 tcp 1040 ------- 1 1.0 3.1 2 7
- 0.066293 0 2 tcp 1040 ------- 0 0.0 3.0 2 5
- 0.066453 1 2 tcp 1040 ------- 1 1.0 3.1 2 7
r 0.081293 0 2 tcp 1040 ------- 0 0.0 3.0 1 4
+ 0.081293 2 3 tcp 1040 ------- 0 0.0 3.0 1 4
- 0.081293 2 3 tcp 1040 ------- 0 0.0 3.0 1 4
r 0.081453 1 2 tcp 1040 ------- 1 1.0 3.1 1 6
+ 0.081453 2 3 tcp 1040 ------- 1 1.0 3.1 1 6
- 0.085453 2 3 tcp 1040 ------- 1 1.0 3.1 1 6
r 0.08684 0 2 tcp 1040 ------- 0 0.0 3.0 2 5
+ 0.08684 2 3 tcp 1040 ------- 0 0.0 3.0 2 5
r 0.087 1 2 tcp 1040 ------- 1 1.0 3.1 2 7
+ 0.087 2 3 tcp 1040 ------- 1 1.0 3.1 2 7
- 0.089613 2 3 tcp 1040 ------- 0 0.0 3.0 2 5
- 0.093773 2 3 tcp 1040 ------- 1 1.0 3.1 2 7
r 0.100453 2 3 tcp 1040 ------- 0 0.0 3.0 1 4
+ 0.100453 3 2 ack 40 ------- 0 3.0 0.0 1 8
- 0.100453 3 2 ack 40 ------- 0 3.0 0.0 1 8
r 0.104613 2 3 tcp 1040 ------- 1 1.0 3.1 1 6
+ 0.104613 3 2 ack 40 ------- 1 3.1 1.0 1 9
- 0.104613 3 2 ack 40 ------- 1 3.1 1.0 1 9
r 0.108773 2 3 tcp 1040 ------- 0 0.0 3.0 2 5
+ 0.108773 3 2 ack 40 ------- 0 3.0 0.0 2 10
- 0.108773 3 2 ack 40 ------- 0 3.0 0.0 2 10
r 0.112933 2 3 tcp 1040 ------- 1 1.0 3.1 2 7
+ 0.112933 3 2 ack 40 ------- 1 3.1 1.0 2 11
- 0.112933 3 2 ack 40 ------- 1 3.1 1.0 2 11
r 0.115613 3 2 ack 40 ------- 0 3.0 0.0 1 8
+ 0.115613 2 0 ack 40 ------- 0 3.0 0.0 1 8
- 0.115613 2 0 ack 40 ------- 0 3.0 0.0 1 8
r 0.119773 3 2 ack 40 ------- 1 3.1 1.0 1 9
+ 0.119773 2 1 ack 40 ------- 1 3.1 1.0 1 9
- 0.119773 2 1 ack 40 ------- 1 3.1 1.0 1 9
r 0.123933 3 2 ack 40 ------- 0 3.0 0.0 2 10
+ 0.123933 2 0 ack 40 ------- 0 3.0 0.0 2 10
- 0.123933 2 0 ack 40 ------- 0 3.0 0.0 2 10
r 0.128093 3 2 ack 40 ------- 1 3.1 1.0 2 11
+ 0.128093 2 1 ack 40 ------- 1 3.1 1.0 2 11
- 0.128093 2 1 ack 40 ------- 1 3.1 1.0 2 11
r 0.130827 2 0 ack 40 ------- 0 3.0 0.0 1 8
+ 0.130827 0 2 tcp 1040 ------- 0 0.0 3.0 3 12
- 0.130827 0 2 tcp 1040 ------- 0 0.0 3.0 3 12
+ 0.130827 0 2 tcp 1040 ------- 0 0.0 3.0 4 13
r 0.134987 2 1 ack 40 ------- 1 3.1 1.0 1 9
+ 0.134987 1 2 tcp 1040 ------- 1 1.0 3.1 3 14
- 0.134987 1 2 tcp 1040 ------- 1 1.0 3.1 3 14
+ 0.134987 1 2 tcp 1040 ------- 1 1.0 3.1 4 15
- 0.136373 0 2 tcp 1040 ------- 0 0.0 3.0 4 13
r 0.139147 2 0 ack 40 ------- 0 3.0 0.0 2 10
+ 0.139147 0 2 tcp 1040 ------- 0 0.0 3.0 5 16
+ 0.139147 0 2 tcp 1040 ------- 0 0.0 3.0 6 17
- 0.140533 1 2 tcp 1040 ------- 1 1.0 3.1 4 15
- 0.14192 0 2 tcp 1040 ------- 0 0.0 3.0 5 16
r 0.143307 2 1 ack 40 ------- 1 3.1 1.0 2 11
+ 0.143307 1 2 tcp 1040 ------- 1 1.0 3.1 5 18
+ 0.143307 1 2 tcp 1040 ------- 1 1.0 3.1 6 19
- 0.14608 1 2 tcp 1040 ------- 1 1.0 3.1 5 18
- 0.147467 0 2 tcp 1040 ------- 0 0.0 3.0 6 17
r 0.151373 0 2 tcp 1040 ------- 0 0.0 3.0 3 12
+ 0.151373 2 3 tcp 1040 ------- 0 0.0 3.0 3 12
- 0.151373 2 3 tcp 1040 ------- 0 0.0 3.0 3 12
- 0.151627 1 2 tcp 1040 ------- 1 1.0 3.1 6 19
r 0.155533 1 2 tcp 1040 ------- 1 1.0 3.1 3 14
+ 0.155533 2 3 tcp 1040 ------- 1 1.0 3.1 3 14
- 0.155533 2 3 tcp 1040 ------- 1 1.0 3.1 3 14
r 0.15692 0 2 tcp 1040 ------- 0 0.0 3.0 4 13
+ 0.15692 2 3 tcp 1040 ------- 0 0.0 3.0 4 13
- 0.159693 2 3 tcp 1040 ------- 0 0.0 3.0 4 13
r 0.16108 1 2 tcp 1040 ------- 1 1.0 3.1 4 15
+ 0.16108 2 3 tcp 1040 ------- 1 1.0 3.1 4 15
r 0.162467 0 2 tcp 1040 ------- 0 0.0 3.0 5 16
+ 0.162467 2 3 tcp 1040 ------- 0 0.0 3.0 5 16
- 0.163853 2 3 tcp 1040 ------- 1 1.0 3.1 4 15
r 0.166627 1 2 tcp 1040 ------- 1 1.0 3.1 5 18
+ 0.166627 2 3 tcp 1040 ------- 1 1.0 3.1 5 18
- 0.168013 2 3 tcp 1040 ------- 0 0.0 3.0 5 16
r 0.168013 0 2 tcp 1040 ------- 0 0.0 3.0 6 17
+ 0.168013 2 3 tcp 1040 ------- 0 0.0 3.0 6 17
r 0.170533 2 3 tcp 1040 ------- 0 0.0 3.0 3 12
+ 0.170533 3 2 ack 40 ------- 0 3.0 0.0 3 20
- 0.170533 3 2 ack 40 ------- 0 3.0 0.0 3 20
- 0.172173 2 3 tcp 1040 ------- 1 1.0 3.1 5 18
r 0.172173 1 2 tcp 1040 ------- 1 1.0 3.1 6 19
+ 0.172173 2 3 tcp 1040 ------- 1 1.0 3.1 6 19
r 0.174693 2 3 tcp 1040 ------- 1 1.0 3.1 3 14
+ 0.174693 3 2 ack 40 ------- 1 3.1 1.0 3 21
- 0.174693 3 2 ack 40 ------- 1 3.1 1.0 3 21
- 0.176333 2 3 tcp 1040 ------- 0 0.0 3.0 6 17
r 0.178853 2 3 tcp 1040 ------- 0 0.0 3.0 4 13
+ 0.178853 3 2 ack 40 ------- 0 3.0 0.0 4 22
- 0.178853 3 2 ack 40 ------- 0 3.0 0.0 4 22
- 0.180493 2 3 tcp 1040 ------- 1 1.0 3.1 6 19
r 0.183013 2 3 tcp 1040 ------- 1 1.0 3.1 4 15
+ 0.183013 3 2 ack 40 ------- 1 3.1 1.0 4 23
- 0.183013 3 2 ack 40 ------- 1 3.1 1.0 4 23
r 0.185693 3 2 ack 40 ------- 0 3.0 0.0 3 20
+ 0.185693 2 0 ack 40 ------- 0 3.0 0.0 3 20
- 0.185693 2 0 ack 40 ------- 0 3.0 0.0 3 20
r 0.187173 2 3 tcp 1040 ------- 0 0.0 3.0 5 16
+ 0.187173 3 2 ack 40 ------- 0 3.0 0.0 5 24
- 0.187173 3 2 ack 40 ------- 0 3.0 0.0 5 24
r 0.189853 3 2 ack 40 ------- 1 3.1 1.0 3 21
+ 0.189853 2 1 ack 40 ------- 1 3.1 1.0 3 21
- 0.189853 2 1 ack 40 ------- 1 3.1 1.0 3 21
r 0.191333 2 3 tcp 1040 ------- 1 1.0 3.1 5 18
+ 0.191333 3 2 ack 40 ------- 1 3.1 1.0 5 25
- 0.191333 3 2 ack 40 ------- 1 3.1 1.0 5 25
r 0.194013 3 2 ack 40 ------- 0 3.0 0.0 4 22
+ 0.194013 2 0 ack 40 ------- 0 3.0 0.0 4 22
- 0.194013 2 0 ack 40 ------- 0 3.0 0.0 4 22
r 0.195493 2 3 tcp 1040 ------- 0 0.0 3.0 6 17
+ 0.195493 3 2 ack 40 ------- 0 3.0 0.0 6 26
- 0.195493 3 2 ack 40 ------- 0 3.0 0.0 6 26
r 0.198173 3 2 ack 40 ------- 1 3.1 1.0 4 23
+ 0.198173 2 1 ack 40 ------- 1 3.1 1.0 4 23
- 0.198173 2 1 ack 40 ------- 1 3.1 1.0 4 23
r 0.199653 2 3 tcp 1040 ------- 1 1.0 3.1 6 19
+ 0.199653 3 2 ack 40 ------- 1 3.1 1.0 6 27
- 0.199653 3 2 ack 40 ------- 1 3.1 1.0 6 27
r 0.200907 2 0 ack 40 ------- 0 3.0 0.0 3 20
+ 0.200907 0 2 tcp 1040 ------- 0 0.0 3.0 7 28
- 0.200907 0 2 tcp 1040 ------- 0 0.0 3.0 7 28
+ 0.200907 0 2 tcp 1040 ------- 0 0.0 3.0 8 29
r 0.202333 3 2 ack 40 ------- 0 3.0 0.0 5 24
+ 0.202333 2 0 ack 40 ------- 0 3.0 0.0 5 24
- 0.202333 2 0 ack 40 ------- 0 3.0 0.0 5 24
r 0.205067 2 1 ack 40 ------- 1 3.1 1.0 3 21
+ 0.205067 1 2 tcp 1040 ------- 1 1.0 3.1 7 30
- 0.205067 1 2 tcp 1040 ------- 1 1.0 3.1 7 30
+ 0.205067 1 2 tcp 1040 ------- 1 1.0 3.1 8 31
- 0.206453 0 2 tcp 1040 ------- 0 0.0 3.0 8 29
r 0.206493 3 2 ack 40 ------- 1 3.1 1.0 5 25
+ 0.206493 2 1 ack 40 ------- 1 3.1 1.0 5 25
- 0.206493 2 1 ack 40 ------- 1 3.1 1.0 5 25
r 0.209227 2 0 ack 40 ------- 0 3.0 0.0 4 22
+ 0.209227 0 2 tcp 1040 ------- 0 0.0 3.0 9 32
+ 0.209227 0 2 tcp 1040 ------- 0 0.0 3.0 10 33
- 0.210613 1 2 tcp 1040 ------- 1 1.0 3.1 8 31
r 0.210653 3 2 ack 40 ------- 0 3.0 0.0 6 26
+ 0.210653 2 0 ack 40 ------- 0 3.0 0.0 6 26
- 0.210653 2 0 ack 40 ------- 0 3.0 0.0 6 26
- 0.212 0 2 tcp 1040 ------- 0 0.0 3.0 9 32
r 0.213387 2 1 ack 40 ------- 1 3.1 1.0 4 23
+ 0.213387 1 2 tcp 1040 ------- 1 1.0 3.1 9 34
+ 0.213387 1 2 tcp 1040 ------- 1 1.0 3.1 10 35
r 0.214813 3 2 ack 40 ------- 1 3.1 1.0 6 27
+ 0.214813 2 1 ack 40 ------- 1 3.1 1.0 6 27
- 0.214813 2 1 ack 40 ------- 1 3.1 1.0 6 27
- 0.21616 1 2 tcp 1040 ------- 1 1.0 3.1 9 34
r 0.217547 2 0 ack 40 ------- 0 3.0 0.0 5 24
+ 0.217547 0 2 tcp 1040 ------- 0 0.0 3.0 11 36
+ 0.217547 0 2 tcp 1040 ------- 0 0.0 3.0 12 37
- 0.217547 0 2 tcp 1040 ------- 0 0.0 3.0 10 33
r 0.221453 0 2 tcp 1040 ------- 0 0.0 3.0 7 28
+ 0.221453 2 3 tcp 1040 ------- 0 0.0 3.0 7 28
- 0.221453 2 3 tcp 1040 ------- 0 0.0 3.0 7 28
r 0.221707 2 1 ack 40 ------- 1 3.1 1.0 5 25
+ 0.221707 1 2 tcp 1040 ------- 1 1.0 3.1 11 38
+ 0.221707 1 2 tcp 1040 ------- 1 1.0 3.1 12 39
- 0.221707 1 2 tcp 1040 ------- 1 1.0 3.1 10 35
- 0.223093 0 2 tcp 1040 ------- 0 0.0 3.0 11 36
r 0.225613 1 2 tcp 1040 ------- 1 1.0 3.1 7 30
+ 0.225613 2 3 tcp 1040 ------- 1 1.0 3.1 7 30
- 0.225613 2 3 tcp 1040 ------- 1 1.0 3.1 7 30
r 0.225867 2 0 ack 40 ------- 0 3.0 0.0 6 26
+ 0.225867 0 2 tcp 1040 ------- 0 0.0 3.0 13 40
+ 0.225867 0 2 tcp 1040 ------- 0 0.0 3.0 14 41
r 0.227 0 2 tcp 1040 ------- 0 0.0 3.0 8 29
+ 0.227 2 3 tcp 1040 ------- 0 0.0 3.0 8 29
- 0.227253 1 2 tcp 1040 ------- 1 1.0 3.1 11 38
- 0.22864 0 2 tcp 1040 ------- 0 0.0 3.0 12 37
- 0.229773 2 3 tcp 1040 ------- 0 0.0 3.0 8 29
r 0.230027 2 1 ack 40 ------- 1 3.1 1.0 6 27
+ 0.230027 1 2 tcp 1040 ------- 1 1.0 3.1 13 42
+ 0.230027 1 2 tcp 1040 ------- 1 1.0 3.1 14 43
r 0.23116 1 2 tcp 1040 ------- 1 1.0 3.1 8 31
+ 0.23116 2 3 tcp 1040 ------- 1 1.0 3.1 8 31
r 0.232547 0 2 tcp 1040 ------- 0 0.0 3.0 9 32
+ 0.232547 2 3 tcp 1040 ------- 0 0.0 3.0 9 32
- 0.2328 1 2 tcp 1040 ------- 1 1.0 3.1 12 39
- 0.233933 2 3 tcp 1040 ------- 1 1.0 3.1 8 31
- 0.234187 0 2 tcp 1040 ------- 0 0.0 3.0 13 40
r 0.236707 1 2 tcp 1040 ------- 1 1.0 3.1 9 34
+ 0.236707 2 3 tcp 1040 ------- 1 1.0 3.1 9 34
- 0.238093 2 3 tcp 1040 ------- 0 0.0 3.0 9 32
r 0.238093 0 2 tcp 1040 ------- 0 0.0 3.0 10 33
+ 0.238093 2 3 tcp 1040 ------- 0 0.0 3.0 10 33
- 0.238347 1 2 tcp 1040 ------- 1 1.0 3.1 13 42
- 0.239733 0 2 tcp 1040 ------- 0 0.0 3.0 14 41
r 0.240613 2 3 tcp 1040 ------- 0 0.0 3.0 7 28
+ 0.240613 3 2 ack 40 ------- 0 3.0 0.0 7 44
- 0.240613 3 2 ack 40 ------- 0 3.0 0.0 7 44
- 0.242253 2 3 tcp 1040 ------- 1 1.0 3.1 9 34
r 0.242253 1 2 tcp 1040 ------- 1 1.0 3.1 10 35
+ 0.242253 2 3 tcp 1040 ------- 1 1.0 3.1 10 35
r 0.24364 0 2 tcp 1040 ------- 0 0.0 3.0 11 36
+ 0.24364 2 3 tcp 1040 ------- 0 0.0 3.0 11 36
- 0.243893 1 2 tcp 1040 ------- 1 1.0 3.1 14 43
r 0.244773 2 3 tcp 1040 ------- 1 1.0 3.1 7 30
+ 0.244773 3 2 ack 40 ------- 1 3.1 1.0 7 45
- 0.244773 3 2 ack 40 ------- 1 3.1 1.0 7 45
- 0.246413 2 3 tcp 1040 ------- 0 0.0 3.0 10 33
r 0.2478 1 2 tcp 1040 ------- 1 1.0 3.1 11 38
+ 0.2478 2 3 tcp 1040 ------- 1 1.0 3.1 11 38
r 0.248933 2 3 tcp 1040 ------- 0 0.0 3.0 8 29
+ 0.248933 3 2 ack 40 ------- 0 3.0 0.0 8 46
- 0.248933 3 2 ack 40 ------- 0 3.0 0.0 8 46
r 0.249187 0 2 tcp 1040 ------- 0 0.0 3.0 12 37
+ 0.249187 2 3 tcp 1040 ------- 0 0.0 3.0 12 37
- 0.250573 2 3 tcp 1040 ------- 1 1.0 3.1 10 35
r 0.253093 2 3 tcp 1040 ------- 1 1.0 3.1 8 31
+ 0.253093 3 2 ack 40 ------- 1 3.1 1.0 8 47
- 0.253093 3 2 ack 40 ------- 1 3.1 1.0 8 47
r 0.253347 1 2 tcp 1040 ------- 1 1.0 3.1 12 39
+ 0.253347 2 3 tcp 1040 ------- 1 1.0 3.1 12 39
- 0.254733 2 3 tcp 1040 ------- 0 0.0 3.0 11 36
r 0.254733 0 2 tcp 1040 ------- 0 0.0 3.0 13 40
+ 0.254733 2 3 tcp 1040 ------- 0 0.0 3.0 13 40
r 0.255773 3 2 ack 40 ------- 0 3.0 0.0 7 44
+ 0.255773 2 0 ack 40 ------- 0 3.0 0.0 7 44
- 0.255773 2 0 ack 40 ------- 0 3.0 0.0 7 44
r 0.257253 2 3 tcp 1040 ------- 0 0.0 3.0 9 32
+ 0.257253 3 2 ack 40 ------- 0 3.0 0.0 9 48
- 0.257253 3 2 ack 40 ------- 0 3.0 0.0 9 48
- 0.258893 2 3 tcp 1040 ------- 1 1.0 3.1 11 38
r 0.258893 1 2 tcp 1040 ------- 1 1.0 3.1 13 42
+ 0.258893 2 3 tcp 1040 ------- 1 1.0 3.1 13 42
r 0.259933 3 2 ack 40 ------- 1 3.1 1.0 7 45
+ 0.259933 2 1 ack 40 ------- 1 3.1 1.0 7 45
- 0.259933 2 1 ack 40 ------- 1 3.1 1.0 7 45
r 0.26028 0 2 tcp 1040 ------- 0 0.0 3.0 14 41
+ 0.26028 2 3 tcp 1040 ------- 0 0.0 3.0 14 41
r 0.261413 2 3 tcp 1040 ------- 1 1.0 3.1 9 34
+ 0.261413 3 2 ack 40 ------- 1 3.1 1.0 9 49
- 0.261413 3 2 ack 40 ------- 1 3.1 1.0 9 49
- 0.263053 2 3 tcp 1040 ------- 0 0.0 3.0 12 37
r 0.264093 3 2 ack 40 ------- 0 3.0 0.0 8 46
+ 0.264093 2 0 ack 40 ------- 0 3.0 0.0 8 46
- 0.264093 2 0 ack 40 ------- 0 3.0 0.0 8 46
r 0.26444 1 2 tcp 1040 ------- 1 1.0 3.1 14 43
+ 0.26444 2 3 tcp 1040 ------- 1 1.0 3.1 14 43
r 0.265573 2 3 tcp 1040 ------- 0 0.0 3.0 10 33
+ 0.265573 3 2 ack 40 ------- 0 3.0 0.0 10 50
- 0.265573 3 2 ack 40 ------- 0 3.0 0.0 10 50
- 0.267213 2 3 tcp 1040 ------- 1 1.0 3.1 12 39
r 0.268253 3 2 ack 40 ------- 1 3.1 1.0 8 47
+ 0.268253 2 1 ack 40 ------- 1 3.1 1.0 8 47
- 0.268253 2 1 ack 40 ------- 1 3.1 1.0 8 47
r 0.269733 2 3 tcp 1040 ------- 1 1.0 3.1 10 35
+ 0.269733 3 2 ack 40 ------- 1 3.1 1.0 10 51
- 0.269733 3 2 ack 40 ------- 1 3.1 1.0 10 51
r 0.270987 2 0 ack 40 ------- 0 3.0 0.0 7 44
+ 0.270987 0 2 tcp 1040 ------- 0 0.0 3.0 15 52
- 0.270987 0 2 tcp 1040 ------- 0 0.0 3.0 15 52
+ 0.270987 0 2 tcp 1040 ------- 0 0.0 3.0 16 53
- 0.271373 2 3 tcp 1040 ------- 0 0.0 3.0 13 40
r 0.272413 3 2 ack 40 ------- 0 3.0 0.0 9 48
+ 0.272413 2 0 ack 40 ------- 0 3.0 0.0 9 48
- 0.272413 2 0 ack 40 ------- 0 3.0 0.0 9 48
r 0.273893 2 3 tcp 1040 ------- 0 0.0 3.0 11 36
+ 0.273893 3 2 ack 40 ------- 0 3.0 0.0 11 54
- 0.273893 3 2 ack 40 ------- 0 3.0 0.0 11 54
r 0.275147 2 1 ack 40 ------- 1 3.1 1.0 7 45
+ 0.275147 1 2 tcp 1040 ------- 1 1.0 3.1 15 55
- 0.275147 1 2 tcp 1040 ------- 1 1.0 3.1 15 55
+ 0.275147 1 2 tcp 1040 ------- 1 1.0 3.1 16 56
- 0.275533 2 3 tcp 1040 ------- 1 1.0 3.1 13 42
- 0.276533 0 2 tcp 1040 ------- 0 0.0 3.0 16 53
r 0.276573 3 2 ack 40 ------- 1 3.1 1.0 9 49
+ 0.276573 2 1 ack 40 ------- 1 3.1 1.0 9 49
- 0.276573 2 1 ack 40 ------- 1 3.1 1.0 9 49
r 0.278053 2 3 tcp 1040 ------- 1 1.0 3.1 11 38
+ 0.278053 3 2 ack 40 ------- 1 3.1 1.0 11 57
- 0.278053 3 2 ack 40 ------- 1 3.1 1.0 11 57
r 0.279307 2 0 ack 40 ------- 0 3.0 0.0 8 46
+ 0.279307 0 2 tcp 1040 ------- 0 0.0 3.0 17 58
+ 0.279307 0 2 tcp 1040 ------- 0 0.0 3.0 18 59
- 0.279693 2 3 tcp 1040 ------- 0 0.0 3.0 14 41
- 0.280693 1 2 tcp 1040 ------- 1 1.0 3.1 16 56
r 0.280733 3 2 ack 40 ------- 0 3.0 0.0 10 50
+ 0.280733 2 0 ack 40 ------- 0 3.0 0.0 10 50
- 0.280733 2 0 ack 40 ------- 0 3.0 0.0 10 50
- 0.28208 0 2 tcp 1040 ------- 0 0.0 3.0 17 58
r 0.282213 2 3 tcp 1040 ------- 0 0.0 3.0 12 37
+ 0.282213 3 2 ack 40 ------- 0 3.0 0.0 12 60
- 0.282213 3 2 ack 40 ------- 0 3.0 0.0 12 60
r 0.283467 2 1 ack 40 ------- 1 3.1 1.0 8 47
+ 0.283467 1 2 tcp 1040 ------- 1 1.0 3.1 17 61
+ 0.283467 1 2 tcp 1040 ------- 1 1.0 3.1 18 62
- 0.283853 2 3 tcp 1040 ------- 1 1.0 3.1 14 43
r 0.284893 3 2 ack 40 ------- 1 3.1 1.0 10 51
+ 0.284893 2 1 ack 40 ------- 1 3.1 1.0 10 51
- 0.284893 2 1 ack 40 ------- 1 3.1 1.0 10 51
- 0.28624 1 2 tcp 1040 ------- 1 1.0 3.1 17 61
r 0.286373 2 3 tcp 1040 ------- 1 1.0 3.1 12 39
+ 0.286373 3 2 ack 40 ------- 1 3.1 1.0 12 63
- 0.286373 3 2 ack 40 ------- 1 3.1 1.0 12 63
- 0.287627 0 2 tcp 1040 ------- 0 0.0 3.0 18 59
r 0.287627 2 0 ack 40 ------- 0 3.0 0.0 9 48
+ 0.287627 0 2 tcp 1040 ------- 0 0.0 3.0 19 64
+ 0.287627 0 2 tcp 1040 ------- 0 0.0 3.0 20 65
r 0.289053 3 2 ack 40 ------- 0 3.0 0.0 11 54
+ 0.289053 2 0 ack 40 ------- 0 3.0 0.0 11 54
- 0.289053 2 0 ack 40 ------- 0 3.0 0.0 11 54
r 0.290533 2 3 tcp 1040 ------- 0 0.0 3.0 13 40
+ 0.290533 3 2 ack 40 ------- 0 3.0 0.0 13 66
- 0.290533 3 2 ack 40 ------- 0 3.0 0.0 13 66
r 0.291533 0 2 tcp 1040 ------- 0 0.0 3.0 15 52
+ 0.291533 2 3 tcp 1040 ------- 0 0.0 3.0 15 52
- 0.291533 2 3 tcp 1040 ------- 0 0.0 3.0 15 52
- 0.291787 1 2 tcp 1040 ------- 1 1.0 3.1 18 62
r 0.291787 2 1 ack 40 ------- 1 3.1 1.0 9 49
+ 0.291787 1 2 tcp 1040 ------- 1 1.0 3.1 19 67
+ 0.291787 1 2 tcp 1040 ------- 1 1.0 3.1 20 68
- 0.293173 0 2 tcp 1040 ------- 0 0.0 3.0 19 64
r 0.293213 3 2 ack 40 ------- 1 3.1 1.0 11 57
+ 0.293213 2 1 ack 40 ------- 1 3.1 1.0 11 57
- 0.293213 2 1 ack 40 ------- 1 3.1 1.0 11 57
r 0.294693 2 3 tcp 1040 ------- 1 1.0 3.1 13 42
+ 0.294693 3 2 ack 40 ------- 1 3.1 1.0 13 69
- 0.294693 3 2 ack 40 ------- 1 3.1 1.0 13 69
r 0.295693 1 2 tcp 1040 ------- 1 1.0 3.1 15 55
+ 0.295693 2 3 tcp 1040 ------- 1 1.0 3.1 15 55
- 0.295693 2 3 tcp 1040 ------- 1 1.0 3.1 15 55
r 0.295947 2 0 ack 40 ------- 0 3.0 0.0 10 50
+ 0.295947 0 2 tcp 1040 ------- 0 0.0 3.0 21 70
+ 0.295947 0 2 tcp 1040 ------- 0 0.0 3.0 22 71
r 0.29708 0 2 tcp 1040 ------- 0 0.0 3.0 16 53
+ 0.29708 2 3 tcp 1040 ------- 0 0.0 3.0 16 53
- 0.297333 1 2 tcp 1040 ------- 1 1.0 3.1 19 67
r 0.297373 3 2 ack 40 ------- 0 3.0 0.0 12 60
+ 0.297373 2 0 ack 40 ------- 0 3.0 0.0 12 60
- 0.297373 2 0 ack 40 ------- 0 3.0 0.0 12 60
- 0.29872 0 2 tcp 1040 ------- 0 0.0 3.0 20 65
r 0.298853 2 3 tcp 1040 ------- 0 0.0 3.0 14 41
+ 0.298853 3 2 ack 40 ------- 0 3.0 0.0 14 72
- 0.298853 3 2 ack 40 ------- 0 3.0 0.0 14 72
- 0.299853 2 3 tcp 1040 ------- 0 0.0 3.0 16 53
r 0.300107 2 1 ack 40 ------- 1 3.1 1.0 10 51
+ 0.300107 1 2 tcp 1040 ------- 1 1.0 3.1 21 73
+ 0.300107 1 2 tcp 1040 ------- 1 1.0 3.1 22 74
r 0.30124 1 2 tcp 1040 ------- 1 1.0 3.1 16 56
+ 0.30124 2 3 tcp 1040 ------- 1 1.0 3.1 16 56
r 0.301533 3 2 ack 40 ------- 1 3.1 1.0 12 63
+ 0.301533 2 1 ack 40 ------- 1 3.1 1.0 12 63
- 0.301533 2 1 ack 40 ------- 1 3.1 1.0 12 63
r 0.302627 0 2 tcp 1040 ------- 0 0.0 3.0 17 58
+ 0.302627 2 3 tcp 1040 ------- 0 0.0 3.0 17 58
- 0.30288 1 2 tcp 1040 ------- 1 1.0 3.1 20 68
r 0.303013 2 3 tcp 1040 ------- 1 1.0 3.1 14 43
+ 0.303013 3 2 ack 40 ------- 1 3.1 1.0 14 75
- 0.303013 3 2 ack 40 ------- 1 3.1 1.0 14 75
- 0.304013 2 3 tcp 1040 ------- 1 1.0 3.1 16 56
- 0.304267 0 2 tcp 1040 ------- 0 0.0 3.0 21 70
r 0.304267 2 0 ack 40 ------- 0 3.0 0.0 11 54
+ 0.304267 0 2 tcp 1040 ------- 0 0.0 3.0 23 76
+ 0.304267 0 2 tcp 1040 ------- 0 0.0 3.0 24 77
r 0.305693 3 2 ack 40 ------- 0 3.0 0.0 13 66
+ 0.305693 2 0 ack 40 ------- 0 3.0 0.0 13 66
- 0.305693 2 0 ack 40 ------- 0 3.0 0.0 13 66
r 0.306787 1 2 tcp 1040 ------- 1 1.0 3.1 17 61
+ 0.306787 2 3 tcp 1040 ------- 1 1.0 3.1 17 61
r 0.308173 0 2 tcp 1040 ------- 0 0.0 3.0 18 59
+ 0.308173 2 3 tcp 1040 ------- 0 0.0 3.0 18 59
- 0.308173 2 3 tcp 1040 ------- 0 0.0 3.0 17 58
- 0.308427 1 2 tcp 1040 ------- 1 1.0 3.1 21 73
r 0.308427 2 1 ack 40 ------- 1 3.1 1.0 11 57
+ 0.308427 1 2 tcp 1040 ------- 1 1.0 3.1 23 78
+ 0.308427 1 2 tcp 1040 ------- 1 1.0 3.1 24 79
- 0.309813 0 2 tcp 1040 ------- 0 0.0 3.0 22 71
r 0.309853 3 2 ack 40 ------- 1 3.1 1.0 13 69
+ 0.309853 2 1 ack 40 ------- 1 3.1 1.0 13 69
- 0.309853 2 1 ack 40 ------- 1 3.1 1.0 13 69
r 0.310693 2 3 tcp 1040 ------- 0 0.0 3.0 15 52
+ 0.310693 3 2 ack 40 ------- 0 3.0 0.0 15 80
- 0.310693 3 2 ack 40 ------- 0 3.0 0.0 15 80
r 0.312333 1 2 tcp 1040 ------- 1 1.0 3.1 18 62
+ 0.312333 2 3 tcp 1040 ------- 1 1.0 3.1 18 62
- 0.312333 2 3 tcp 1040 ------- 1 1.0 3.1 17 61
r 0.312587 2 0 ack 40 ------- 0 3.0 0.0 12 60
+ 0.312587 0 2 tcp 1040 ------- 0 0.0 3.0 25 81
+ 0.312587 0 2 tcp 1040 ------- 0 0.0 3.0 26 82
r 0.31372 0 2 tcp 1040 ------- 0 0.0 3.0 19 64
+ 0.31372 2 3 tcp 1040 ------- 0 0.0 3.0 19 64
- 0.313973 1 2 tcp 1040 ------- 1 1.0 3.1 22 74
r 0.314013 3 2 ack 40 ------- 0 3.0 0.0 14 72
+ 0.314013 2 0 ack 40 ------- 0 3.0 0.0 14 72
- 0.314013 2 0 ack 40 ------- 0 3.0 0.0 14 72
r 0.314853 2 3 tcp 1040 ------- 1 1.0 3.1 15 55
+ 0.314853 3 2 ack 40 ------- 1 3.1 1.0 15 83
- 0.314853 3 2 ack 40 ------- 1 3.1 1.0 15 83
- 0.31536 0 2 tcp 1040 ------- 0 0.0 3.0 23 76
- 0.316493 2 3 tcp 1040 ------- 0 0.0 3.0 18 59
r 0.316747 2 1 ack 40 ------- 1 3.1 1.0 12 63
+ 0.316747 1 2 tcp 1040 ------- 1 1.0 3.1 25 84
+ 0.316747 1 2 tcp 1040 ------- 1 1.0 3.1 26 85
r 0.31788 1 2 tcp 1040 ------- 1 1.0 3.1 19 67
+ 0.31788 2 3 tcp 1040 ------- 1 1.0 3.1 19 67
r 0.318173 3 2 ack 40 ------- 1 3.1 1.0 14 75
+ 0.318173 2 1 ack 40 ------- 1 3.1 1.0 14 75
- 0.318173 2 1 ack 40 ------- 1 3.1 1.0 14 75
r 0.319013 2 3 tcp 1040 ------- 0 0.0 3.0 16 53
+ 0.319013 3 2 ack 40 ------- 0 3.0 0.0 16 86
- 0.319013 3 2 ack 40 ------- 0 3.0 0.0 16 86
r 0.319267 0 2 tcp 1040 ------- 0 0.0 3.0 20 65
+ 0.319267 2 3 tcp 1040 ------- 0 0.0 3.0 20 65
- 0.31952 1 2 tcp 1040 ------- 1 1.0 3.1 23 78
- 0.320653 2 3 tcp 1040 ------- 1 1.0 3.1 18 62
- 0.320907 0 2 tcp 1040 ------- 0 0.0 3.0 24 77
r 0.320907 2 0 ack 40 ------- 0 3.0 0.0 13 66
+ 0.320907 0 2 tcp 1040 ------- 0 0.0 3.0 27 87
+ 0.320907 0 2 tcp 1040 ------- 0 0.0 3.0 28 88
r 0.323173 2 3 tcp 1040 ------- 1 1.0 3.1 16 56
+ 0.323173 3 2 ack 40 ------- 1 3.1 1.0 16 89
- 0.323173 3 2 ack 40 ------- 1 3.1 1.0 16 89
r 0.323427 1 2 tcp 1040 ------- 1 1.0 3.1 20 68
+ 0.323427 2 3 tcp 1040 ------- 1 1.0 3.1 20 68
r 0.324813 0 2 tcp 1040 ------- 0 0.0 3.0 21 70
+ 0.324813 2 3 tcp 1040 ------- 0 0.0 3.0 21 70
- 0.324813 2 3 tcp 1040 ------- 0 0.0 3.0 19 64
- 0.325067 1 2 tcp 1040 ------- 1 1.0 3.1 24 79
r 0.325067 2 1 ack 40 ------- 1 3.1 1.0 13 69
+ 0.325067 1 2 tcp 1040 ------- 1 1.0 3.1 27 90
+ 0.325067 1 2 tcp 1040 ------- 1 1.0 3.1 28 91
r 0.325853 3 2 ack 40 ------- 0 3.0 0.0 15 80
+ 0.325853 2 0 ack 40 ------- 0 3.0 0.0 15 80
- 0.325853 2 0 ack 40 ------- 0 3.0 0.0 15 80
- 0.326453 0 2 tcp 1040 ------- 0 0.0 3.0 25 81
r 0.327333 2 3 tcp 1040 ------- 0 0.0 3.0 17 58
+ 0.327333 3 2 ack 40 ------- 0 3.0 0.0 17 92
- 0.327333 3 2 ack 40 ------- 0 3.0 0.0 17 92
r 0.328973 1 2 tcp 1040 ------- 1 1.0 3.1 21 73
+ 0.328973 2 3 tcp 1040 ------- 1 1.0 3.1 21 73
- 0.328973 2 3 tcp 1040 ------- 1 1.0 3.1 19 67
r 0.329227 2 0 ack 40 ------- 0 3.0 0.0 14 72
+ 0.329227 0 2 tcp 1040 ------- 0 0.0 3.0 29 93
+ 0.329227 0 2 tcp 1040 ------- 0 0.0 3.0 30 94
r 0.330013 3 2 ack 40 ------- 1 3.1 1.0 15 83
+ 0.330013 2 1 ack 40 ------- 1 3.1 1.0 15 83
- 0.330013 2 1 ack 40 ------- 1 3.1 1.0 15 83
r 0.33036 0 2 tcp 1040 ------- 0 0.0 3.0 22 71
+ 0.33036 2 3 tcp 1040 ------- 0 0.0 3.0 22 71
- 0.330613 1 2 tcp 1040 ------- 1 1.0 3.1 25 84
r 0.331493 2 3 tcp 1040 ------- 1 1.0 3.1 17 61
+ 0.331493 3 2 ack 40 ------- 1 3.1 1.0 17 95
- 0.331493 3 2 ack 40 ------- 1 3.1 1.0 17 95
- 0.332 0 2 tcp 1040 ------- 0 0.0 3.0 26 82
- 0.333133 2 3 tcp 1040 ------- 0 0.0 3.0 20 65
r 0.333387 2 1 ack 40 ------- 1 3.1 1.0 14 75
+ 0.333387 1 2 tcp 1040 ------- 1 1.0 3.1 29 96
+ 0.333387 1 2 tcp 1040 ------- 1 1.0 3.1 30 97
r 0.334173 3 2 ack 40 ------- 0 3.0 0.0 16 86
+ 0.334173 2 0 ack 40 ------- 0 3.0 0.0 16 86
- 0.334173 2 0 ack 40 ------- 0 3.0 0.0 16 86
r 0.33452 1 2 tcp 1040 ------- 1 1.0 3.1 22 74
+ 0.33452 2 3 tcp 1040 ------- 1 1.0 3.1 22 74
r 0.335653 2 3 tcp 1040 ------- 0 0.0 3.0 18 59
+ 0.335653 3 2 ack 40 ------- 0 3.0 0.0 18 98
- 0.335653 3 2 ack 40 ------- 0 3.0 0.0 18 98
r 0.335907 0 2 tcp 1040 ------- 0 0.0 3.0 23 76
+ 0.335907 2 3 tcp 1040 ------- 0 0.0 3.0 23 76
- 0.33616 1 2 tcp 1040 ------- 1 1.0 3.1 26 85
- 0.337293 2 3 tcp 1040 ------- 1 1.0 3.1 20 68
- 0.337547 0 2 tcp 1040 ------- 0 0.0 3.0 27 87
r 0.338333 3 2 ack 40 ------- 1 3.1 1.0 16 89
+ 0.338333 2 1 ack 40 ------- 1 3.1 1.0 16 89
- 0.338333 2 1 ack 40 ------- 1 3.1 1.0 16 89
r 0.339813 2 3 tcp 1040 ------- 1 1.0 3.1 18 62
+ 0.339813 3 2 ack 40 ------- 1 3.1 1.0 18 99
- 0.339813 3 2 ack 40 ------- 1 3.1 1.0 18 99
r 0.340067 1 2 tcp 1040 ------- 1 1.0 3.1 23 78
+ 0.340067 2 3 tcp 1040 ------- 1 1.0 3.1 23 78
r 0.341067 2 0 ack 40 ------- 0 3.0 0.0 15 80
+ 0.341067 0 2 tcp 1040 ------- 0 0.0 3.0 31 100
+ 0.341067 0 2 tcp 1040 ------- 0 0.0 3.0 32 101
r 0.341453 0 2 tcp 1040 ------- 0 0.0 3.0 24 77
+ 0.341453 2 3 tcp 1040 ------- 0 0.0 3.0 24 77
- 0.341453 2 3 tcp 1040 ------- 0 0.0 3.0 21 70
- 0.341707 1 2 tcp 1040 ------- 1 1.0 3.1 27 90
r 0.342493 3 2 ack 40 ------- 0 3.0 0.0 17 92
+ 0.342493 2 0 ack 40 ------- 0 3.0 0.0 17 92
- 0.342493 2 0 ack 40 ------- 0 3.0 0.0 17 92
- 0.343093 0 2 tcp 1040 ------- 0 0.0 3.0 28 88
r 0.343973 2 3 tcp 1040 ------- 0 0.0 3.0 19 64
+ 0.343973 3 2 ack 40 ------- 0 3.0 0.0 19 102
- 0.343973 3 2 ack 40 ------- 0 3.0 0.0 19 102
r 0.345227 2 1 ack 40 ------- 1 3.1 1.0 15 83
+ 0.345227 1 2 tcp 1040 ------- 1 1.0 3.1 31 103
+ 0.345227 1 2 tcp 1040 ------- 1 1.0 3.1 32 104
r 0.345613 1 2 tcp 1040 ------- 1 1.0 3.1 24 79
+ 0.345613 2 3 tcp 1040 ------- 1 1.0 3.1 24 79
- 0.345613 2 3 tcp 1040 ------- 1 1.0 3.1 21 73
r 0.346653 3 2 ack 40 ------- 1 3.1 1.0 17 95
+ 0.346653 2 1 ack 40 ------- 1 3.1 1.0 17 95
- 0.346653 2 1 ack 40 ------- 1 3.1 1.0 17 95
r 0.347 0 2 tcp 1040 ------- 0 0.0 3.0 25 81
+ 0.347 2 3 tcp 1040 ------- 0 0.0 3.0 25 81
- 0.347253 1 2 tcp 1040 ------- 1 1.0 3.1 28 91
r 0.348133 2 3 tcp 1040 ------- 1 1.0 3.1 19 67
+ 0.348133 3 2 ack 40 ------- 1 3.1 1.0 19 105
- 0.348133 3 2 ack 40 ------- 1 3.1 1.0 19 105
- 0.34864 0 2 tcp 1040 ------- 0 0.0 3.0 29 93
r 0.349387 2 0 ack 40 ------- 0 3.0 0.0 16 86
+ 0.349387 0 2 tcp 1040 ------- 0 0.0 3.0 33 106
+ 0.349387 0 2 tcp 1040 ------- 0 0.0 3.0 34 107
- 0.349773 2 3 tcp 1040 ------- 0 0.0 3.0 22 71
r 0.350813 3 2 ack 40 ------- 0 3.0 0.0 18 98
+ 0.350813 2 0 ack 40 ------- 0 3.0 0.0 18 98
- 0.350813 2 0 ack 40 ------- 0 3.0 0.0 18 98
r 0.35116 1 2 tcp 1040 ------- 1 1.0 3.1 25 84
+ 0.35116 2 3 tcp 1040 ------- 1 1.0 3.1 25 84
r 0.352293 2 3 tcp 1040 ------- 0 0.0 3.0 20 65
+ 0.352293 3 2 ack 40 ------- 0 3.0 0.0 20 108
- 0.352293 3 2 ack 40 ------- 0 3.0 0.0 20 108
r 0.352547 0 2 tcp 1040 ------- 0 0.0 3.0 26 82
+ 0.352547 2 3 tcp 1040 ------- 0 0.0 3.0 26 82
- 0.3528 1 2 tcp 1040 ------- 1 1.0 3.1 29 96
r 0.353547 2 1 ack 40 ------- 1 3.1 1.0 16 89
+ 0.353547 1 2 tcp 1040 ------- 1 1.0 3.1 33 109
+ 0.353547 1 2 tcp 1040 ------- 1 1.0 3.1 34 110
- 0.353933 2 3 tcp 1040 ------- 1 1.0 3.1 22 74
- 0.354187 0 2 tcp 1040 ------- 0 0.0 3.0 30 94
r 0.354973 3 2 ack 40 ------- 1 3.1 1.0 18 99
+ 0.354973 2 1 ack 40 ------- 1 3.1 1.0 18 99
- 0.354973 2 1 ack 40 ------- 1 3.1 1.0 18 99
r 0.356453 2 3 tcp 1040 ------- 1 1.0 3.1 20 68
+ 0.356453 3 2 ack 40 ------- 1 3.1 1.0 20 111
- 0.356453 3 2 ack 40 ------- 1 3.1 1.0 20 111
r 0.356707 1 2 tcp 1040 ------- 1 1.0 3.1 26 85
+ 0.356707 2 3 tcp 1040 ------- 1 1.0 3.1 26 85
r 0.357707 2 0 ack 40 ------- 0 3.0 0.0 17 92
+ 0.357707 0 2 tcp 1040 ------- 0 0.0 3.0 35 112
+ 0.357707 0 2 tcp 1040 ------- 0 0.0 3.0 36 113
r 0.358093 0 2 tcp 1040 ------- 0 0.0 3.0 27 87
+ 0.358093 2 3 tcp 1040 ------- 0 0.0 3.0 27 87
- 0.358093 2 3 tcp 1040 ------- 0 0.0 3.0 23 76
- 0.358347 1 2 tcp 1040 ------- 1 1.0 3.1 30 97
r 0.359133 3 2 ack 40 ------- 0 3.0 0.0 19 102
+ 0.359133 2 0 ack 40 ------- 0 3.0 0.0 19 102
- 0.359133 2 0 ack 40 ------- 0 3.0 0.0 19 102
- 0.359733 0 2 tcp 1040 ------- 0 0.0 3.0 31 100
r 0.360613 2 3 tcp 1040 ------- 0 0.0 3.0 21 70
+ 0.360613 3 2 ack 40 ------- 0 3.0 0.0 21 114
- 0.360613 3 2 ack 40 ------- 0 3.0 0.0 21 114
r 0.361867 2 1 ack 40 ------- 1 3.1 1.0 17 95
+ 0.361867 1 2 tcp 1040 ------- 1 1.0 3.1 35 115
+ 0.361867 1 2 tcp 1040 ------- 1 1.0 3.1 36 116
r 0.362253 1 2 tcp 1040 ------- 1 1.0 3.1 27 90
+ 0.362253 2 3 tcp 1040 ------- 1 1.0 3.1 27 90
- 0.362253 2 3 tcp 1040 ------- 1 1.0 3.1 23 78
r 0.363293 3 2 ack 40 ------- 1 3.1 1.0 19 105
+ 0.363293 2 1 ack 40 ------- 1 3.1 1.0 19 105
- 0.363293 2 1 ack 40 ------- 1 3.1 1.0 19 105
r 0.36364 0 2 tcp 1040 ------- 0 0.0 3.0 28 88
+ 0.36364 2 3 tcp 1040 ------- 0 0.0 3.0 28 88
- 0.363893 1 2 tcp 1040 ------- 1 1.0 3.1 31 103
r 0.364773 2 3 tcp 1040 ------- 1 1.0 3.1 21 73
+ 0.364773 3 2 ack 40 ------- 1 3.1 1.0 21 117
- 0.364773 3 2 ack 40 ------- 1 3.1 1.0 21 117
- 0.36528 0 2 tcp 1040 ------- 0 0.0 3.0 32 101
r 0.366027 2 0 ack 40 ------- 0 3.0 0.0 18 98
+ 0.366027 0 2 tcp 1040 ------- 0 0.0 3.0 37 118
+ 0.366027 0 2 tcp 1040 ------- 0 0.0 3.0 38 119
- 0.366413 2 3 tcp 1040 ------- 0 0.0 3.0 24 77
r 0.367453 3 2 ack 40 ------- 0 3.0 0.0 20 108
+ 0.367453 2 0 ack 40 ------- 0 3.0 0.0 20 108
- 0.367453 2 0 ack 40 ------- 0 3.0 0.0 20 108
r 0.3678 1 2 tcp 1040 ------- 1 1.0 3.1 28 91
+ 0.3678 2 3 tcp 1040 ------- 1 1.0 3.1 28 91
r 0.368933 2 3 tcp 1040 ------- 0 0.0 3.0 22 71
+ 0.368933 3 2 ack 40 ------- 0 3.0 0.0 22 120
- 0.368933 3 2 ack 40 ------- 0 3.0 0.0 22 120
r 0.369187 0 2 tcp 1040 ------- 0 0.0 3.0 29 93
+ 0.369187 2 3 tcp 1040 ------- 0 0.0 3.0 29 93
- 0.36944 1 2 tcp 1040 ------- 1 1.0 3.1 32 104
r 0.370187 2 1 ack 40 ------- 1 3.1 1.0 18 99
+ 0.370187 1 2 tcp 1040 ------- 1 1.0 3.1 37 121
+ 0.370187 1 2 tcp 1040 ------- 1 1.0 3.1 38 122
- 0.370573 2 3 tcp 1040 ------- 1 1.0 3.1 24 79
- 0.370827 0 2 tcp 1040 ------- 0 0.0 3.0 33 106
r 0.371613 3 2 ack 40 ------- 1 3.1 1.0 20 111
+ 0.371613 2 1 ack 40 ------- 1 3.1 1.0 20 111
- 0.371613 2 1 ack 40 ------- 1 3.1 1.0 20 111
r 0.373093 2 3 tcp 1040 ------- 1 1.0 3.1 22 74
+ 0.373093 3 2 ack 40 ------- 1 3.1 1.0 22 123
- 0.373093 3 2 ack 40 ------- 1 3.1 1.0 22 123
r 0.373347 1 2 tcp 1040 ------- 1 1.0 3.1 29 96
+ 0.373347 2 3 tcp 1040 ------- 1 1.0 3.1 29 96
r 0.374347 2 0 ack 40 ------- 0 3.0 0.0 19 102
+ 0.374347 0 2 tcp 1040 ------- 0 0.0 3.0 39 124
+ 0.374347 0 2 tcp 1040 ------- 0 0.0 3.0 40 125
r 0.374733 0 2 tcp 1040 ------- 0 0.0 3.0 30 94
+ 0.374733 2 3 tcp 1040 ------- 0 0.0 3.0 30 94
- 0.374733 2 3 tcp 1040 ------- 0 0.0 3.0 25 81
- 0.374987 1 2 tcp 1040 ------- 1 1.0 3.1 33 109
r 0.375773 3 2 ack 40 ------- 0 3.0 0.0 21 114
+ 0.375773 2 0 ack 40 ------- 0 3.0 0.0 21 114
- 0.375773 2 0 ack 40 ------- 0 3.0 0.0 21 114
- 0.376373 0 2 tcp 1040 ------- 0 0.0 3.0 34 107
r 0.377253 2 3 tcp 1040 ------- 0 0.0 3.0 23 76
+ 0.377253 3 2 ack 40 ------- 0 3.0 0.0 23 126
- 0.377253 3 2 ack 40 ------- 0 3.0 0.0 23 126
r 0.378507 2 1 ack 40 ------- 1 3.1 1.0 19 105
+ 0.378507 1 2 tcp 1040 ------- 1 1.0 3.1 39 127
+ 0.378507 1 2 tcp 1040 ------- 1 1.0 3.1 40 128
r 0.378893 1 2 tcp 1040 ------- 1 1.0 3.1 30 97
+ 0.378893 2 3 tcp 1040 ------- 1 1.0 3.1 30 97
- 0.378893 2 3 tcp 1040 ------- 1 1.0 3.1 25 84
r 0.379933 3 2 ack 40 ------- 1 3.1 1.0 21 117
+ 0.379933 2 1 ack 40 ------- 1 3.1 1.0 21 117
- 0.379933 2 1 ack 40 ------- 1 3.1 1.0 21 117
r 0.38028 0 2 tcp 1040 ------- 0 0.0 3.0 31 100
+ 0.38028 2 3 tcp 1040 ------- 0 0.0 3.0 31 100
- 0.380533 1 2 tcp 1040 ------- 1 1.0 3.1 34 110