V -t * -v 1.0a5 -a 0
A -t * -n 1 -p 0 -o 0x7fffffff -c 30 -a 1
A -t * -h 1 -m 1073741823 -s 0
n -t * -a 0 -s 0 -S UP -v circle -c black -i black
n -t * -a 1 -s 1 -S UP -v circle -c black -i black
n -t * -a 2 -s 2 -S UP -v circle -c black -i black
n -t * -a 3 -s 3 -S UP -v circle -c black -i black
l -t * -s 0 -d 1 -S UP -r 1500000 -D 0.014999999999999999 -c black -o right-up
l -t * -s 1 -d 2 -S UP -r 1500000 -D 0.014999999999999999 -c black -o right-down
l -t * -s 2 -d 3 -S UP -r 1500000 -D 0.014999999999999999 -c black -o left-down
l -t * -s 3 -d 0 -S UP -r 1500000 -D 0.014999999999999999 -c black -o left-up
+ -t 0.5 -s 0 -d 1 -p cbr -e 210 -c 0 -i 0 -a 0 -x {0.0 1.0 0 ------- null}
- -t 0.5 -s 0 -d 1 -p cbr -e 210 -c 0 -i 0 -a 0 -x {0.0 1.0 0 ------- null}
h -t 0.5 -s 0 -d 1 -p cbr -e 210 -c 0 -i 0 -a 0 -x {0.0 1.0 -1 ------- null}
+ -t 0.5 -s 3 -d 0 -p cbr -e 210 -c 0 -i 1 -a 0 -x {3.0 0.1 0 ------- null}
- -t 0.5 -s 3 -d 0 -p cbr -e 210 -c 0 -i 1 -a 0 -x {3.0 0.1 0 ------- null}
h -t 0.5 -s 3 -d 0 -p cbr -e 210 -c 0 -i 1 -a 0 -x {3.0 0.1 -1 ------- null}
+ -t 0.5 -s 1 -d 2 -p tcp -e 40 -c 0 -i 2 -a 0 -x {1.1 2.1 0 ------- null}
- -t 0.5 -s 1 -d 2 -p tcp -e 40 -c 0 -i 2 -a 0 -x {1.1 2.1 0 ------- null}
h -t 0.5 -s 1 -d 2 -p tcp -e 40 -c 0 -i 2 -a 0 -x {1.1 2.1 -1 ------- null}
+ -t 0.5 -s 2 -d 3 -p tcp -e 40 -c 0 -i 3 -a 0 -x {2.0 3.1 0 ------- null}
- -t 0.5 -s 2 -d 3 -p tcp -e 40 -c 0 -i 3 -a 0 -x {2.0 3.1 0 ------- null}
h -t 0.5 -s 2 -d 3 -p tcp -e 40 -c 0 -i 3 -a 0 -x {2.0 3.1 -1 ------- null}
+ -t 0.50375 -s 0 -d 1 -p cbr -e 210 -c 0 -i 4 -a 0 -x {0.0 1.0 1 ------- null}
- -t 0.50375 -s 0 -d 1 -p cbr -e 210 -c 0 -i 4 -a 0 -x {0.0 1.0 1 ------- null}
h -t 0.50375 -s 0 -d 1 -p cbr -e 210 -c 0 -i 4 -a 0 -x {0.0 1.0 -1 ------- null}
+ -t 0.50375 -s 3 -d 0 -p cbr -e 210 -c 0 -i 5 -a 0 -x {3.0 0.1 1 ------- null}
- -t 0.50375 -s 3 -d 0 -p cbr -e 210 -c 0 -i 5 -a 0 -x {3.0 0.1 1 ------- null}
h -t 0.50375 -s 3 -d 0 -p cbr -e 210 -c 0 -i 5 -a 0 -x {3.0 0.1 -1 ------- null}
+ -t 0.5075 -s 0 -d 1 -p cbr -e 210 -c 0 -i 6 -a 0 -x {0.0 1.0 2 ------- null}
- -t 0.5075 -s 0 -d 1 -p cbr -e 210 -c 0 -i 6 -a 0 -x {0.0 1.0 2 ------- null}
h -t 0.5075 -s 0 -d 1 -p cbr -e 210 -c 0 -i 6 -a 0 -x {0.0 1.0 -1 ------- null}
+ -t 0.5075 -s 3 -d 0 -p cbr -e 210 -c 0 -i 7 -a 0 -x {3.0 0.1 2 ------- null}
- -t 0.5075 -s 3 -d 0 -p cbr -e 210 -c 0 -i 7 -a 0 -x {3.0 0.1 2 ------- null}
h -t 0.5075 -s 3 -d 0 -p cbr -e 210 -c 0 -i 7 -a 0 -x {3.0 0.1 -1 ------- null}
+ -t 0.51125 -s 0 -d 1 -p cbr -e 210 -c 0 -i 8 -a 0 -x {0.0 1.0 3 ------- null}
- -t 0.51125 -s 0 -d 1 -p cbr -e 210 -c 0 -i 8 -a 0 -x {0.0 1.0 3 ------- null}
h -t 0.51125 -s 0 -d 1 -p cbr -e 210 -c 0 -i 8 -a 0 -x {0.0 1.0 -1 ------- null}
+ -t 0.51125 -s 3 -d 0 -p cbr -e 210 -c 0 -i 9 -a 0 -x {3.0 0.1 3 ------- null}
- -t 0.51125 -s 3 -d 0 -p cbr -e 210 -c 0 -i 9 -a 0 -x {3.0 0.1 3 ------- null}
h -t 0.51125 -s 3 -d 0 -p cbr -e 210 -c 0 -i 9 -a 0 -x {3.0 0.1 -1 ------- null}
+ -t 0.515 -s 0 -d 1 -p cbr -e 210 -c 0 -i 10 -a 0 -x {0.0 1.0 4 ------- null}
- -t 0.515 -s 0 -d 1 -p cbr -e 210 -c 0 -i 10 -a 0 -x {0.0 1.0 4 ------- null}
h -t 0.515 -s 0 -d 1 -p cbr -e 210 -c 0 -i 10 -a 0 -x {0.0 1.0 -1 ------- null}
+ -t 0.515 -s 3 -d 0 -p cbr -e 210 -c 0 -i 11 -a 0 -x {3.0 0.1 4 ------- null}
- -t 0.515 -s 3 -d 0 -p cbr -e 210 -c 0 -i 11 -a 0 -x {3.0 0.1 4 ------- null}
h -t 0.515 -s 3 -d 0 -p cbr -e 210 -c 0 -i 11 -a 0 -x {3.0 0.1 -1 ------- null}
r -t 0.515213333333333 -s 1 -d 2 -p tcp -e 40 -c 0 -i 2 -a 0 -x {1.1 2.1 0 ------- null}
+ -t 0.515213333333333 -s 2 -d 1 -p ack -e 40 -c 0 -i 12 -a 0 -x {2.1 1.1 0 ------- null}
- -t 0.515213333333333 -s 2 -d 1 -p ack -e 40 -c 0 -i 12 -a 0 -x {2.1 1.1 0 ------- null}
h -t 0.515213333333333 -s 2 -d 1 -p ack -e 40 -c 0 -i 12 -a 0 -x {2.1 1.1 -1 ------- null}
r -t 0.515213333333333 -s 2 -d 3 -p tcp -e 40 -c 0 -i 3 -a 0 -x {2.0 3.1 0 ------- null}
+ -t 0.515213333333333 -s 3 -d 2 -p ack -e 40 -c 0 -i 13 -a 0 -x {3.1 2.0 0 ------- null}
- -t 0.515213333333333 -s 3 -d 2 -p ack -e 40 -c 0 -i 13 -a 0 -x {3.1 2.0 0 ------- null}
h -t 0.515213333333333 -s 3 -d 2 -p ack -e 40 -c 0 -i 13 -a 0 -x {3.1 2.0 -1 ------- null}
r -t 0.51612 -s 0 -d 1 -p cbr -e 210 -c 0 -i 0 -a 0 -x {0.0 1.0 0 ------- null}
r -t 0.51612 -s 3 -d 0 -p cbr -e 210 -c 0 -i 1 -a 0 -x {3.0 0.1 0 ------- null}
+ -t 0.51875 -s 0 -d 1 -p cbr -e 210 -c 0 -i 14 -a 0 -x {0.0 1.0 5 ------- null}
- -t 0.51875 -s 0 -d 1 -p cbr -e 210 -c 0 -i 14 -a 0 -x {0.0 1.0 5 ------- null}
h -t 0.51875 -s 0 -d 1 -p cbr -e 210 -c 0 -i 14 -a 0 -x {0.0 1.0 -1 ------- null}
+ -t 0.51875 -s 3 -d 0 -p cbr -e 210 -c 0 -i 15 -a 0 -x {3.0 0.1 5 ------- null}
- -t 0.51875 -s 3 -d 0 -p cbr -e 210 -c 0 -i 15 -a 0 -x {3.0 0.1 5 ------- null}
h -t 0.51875 -s 3 -d 0 -p cbr -e 210 -c 0 -i 15 -a 0 -x {3.0 0.1 -1 ------- null}
r -t 0.51987 -s 0 -d 1 -p cbr -e 210 -c 0 -i 4 -a 0 -x {0.0 1.0 1 ------- null}
r -t 0.51987 -s 3 -d 0 -p cbr -e 210 -c 0 -i 5 -a 0 -x {3.0 0.1 1 ------- null}
+ -t 0.5225 -s 0 -d 1 -p cbr -e 210 -c 0 -i 16 -a 0 -x {0.0 1.0 6 ------- null}
- -t 0.5225 -s 0 -d 1 -p cbr -e 210 -c 0 -i 16 -a 0 -x {0.0 1.0 6 ------- null}
h -t 0.5225 -s 0 -d 1 -p cbr -e 210 -c 0 -i 16 -a 0 -x {0.0 1.0 -1 ------- null}
+ -t 0.5225 -s 3 -d 0 -p cbr -e 210 -c 0 -i 17 -a 0 -x {3.0 0.1 6 ------- null}
- -t 0.5225 -s 3 -d 0 -p cbr -e 210 -c 0 -i 17 -a 0 -x {3.0 0.1 6 ------- null}
h -t 0.5225 -s 3 -d 0 -p cbr -e 210 -c 0 -i 17 -a 0 -x {3.0 0.1 -1 ------- null}
r -t 0.52362 -s 0 -d 1 -p cbr -e 210 -c 0 -i 6 -a 0 -x {0.0 1.0 2 ------- null}
r -t 0.52362 -s 3 -d 0 -p cbr -e 210 -c 0 -i 7 -a 0 -x {3.0 0.1 2 ------- null}
+ -t 0.52625 -s 0 -d 1 -p cbr -e 210 -c 0 -i 18 -a 0 -x {0.0 1.0 7 ------- null}
- -t 0.52625 -s 0 -d 1 -p cbr -e 210 -c 0 -i 18 -a 0 -x {0.0 1.0 7 ------- null}
h -t 0.52625 -s 0 -d 1 -p cbr -e 210 -c 0 -i 18 -a 0 -x {0.0 1.0 -1 ------- null}
+ -t 0.52625 -s 3 -d 0 -p cbr -e 210 -c 0 -i 19 -a 0 -x {3.0 0.1 7 ------- null}
- -t 0.52625 -s 3 -d 0 -p cbr -e 210 -c 0 -i 19 -a 0 -x {3.0 0.1 7 ------- null}
h -t 0.52625 -s 3 -d 0 -p cbr -e 210 -c 0 -i 19 -a 0 -x {3.0 0.1 -1 ------- null}
r -t 0.52737 -s 0 -d 1 -p cbr -e 210 -c 0 -i 8 -a 0 -x {0.0 1.0 3 ------- null}
r -t 0.52737 -s 3 -d 0 -p cbr -e 210 -c 0 -i 9 -a 0 -x {3.0 0.1 3 ------- null}
+ -t 0.53 -s 0 -d 1 -p cbr -e 210 -c 0 -i 20 -a 0 -x {0.0 1.0 8 ------- null}
- -t 0.53 -s 0 -d 1 -p cbr -e 210 -c 0 -i 20 -a 0 -x {0.0 1.0 8 ------- null}
h -t 0.53 -s 0 -d 1 -p cbr -e 210 -c 0 -i 20 -a 0 -x {0.0 1.0 -1 ------- null}
+ -t 0.53 -s 3 -d 0 -p cbr -e 210 -c 0 -i 21 -a 0 -x {3.0 0.1 8 ------- null}
- -t 0.53 -s 3 -d 0 -p cbr -e 210 -c 0 -i 21 -a 0 -x {3.0 0.1 8 ------- null}
h -t 0.53 -s 3 -d 0 -p cbr -e 210 -c 0 -i 21 -a 0 -x {3.0 0.1 -1 ------- null}
r -t 0.530426666666667 -s 2 -d 1 -p ack -e 40 -c 0 -i 12 -a 0 -x {2.1 1.1 0 ------- null}
+ -t 0.530426666666667 -s 1 -d 2 -p tcp -e 1040 -c 0 -i 22 -a 0 -x {1.1 2.1 1 ------- null}
- -t 0.530426666666667 -s 1 -d 2 -p tcp -e 1040 -c 0 -i 22 -a 0 -x {1.1 2.1 1 ------- null}
h -t 0.530426666666667 -s 1 -d 2 -p tcp -e 1040 -c 0 -i 22 -a 0 -x {1.1 2.1 -1 ------- null}
+ -t 0.530426666666667 -s 1 -d 2 -p tcp -e 1040 -c 0 -i 23 -a 0 -x {1.1 2.1 2 ------- null}
r -t 0.530426666666667 -s 3 -d 2 -p ack -e 40 -c 0 -i 13 -a 0 -x {3.1 2.0 0 ------- null}
+ -t 0.530426666666667 -s 2 -d 3 -p tcp -e 1040 -c 0 -i 24 -a 0 -x {2.0 3.1 1 ------- null}
- -t 0.530426666666667 -s 2 -d 3 -p tcp -e 1040 -c 0 -i 24 -a 0 -x {2.0 3.1 1 ------- null}
h -t 0.530426666666667 -s 2 -d 3 -p tcp -e 1040 -c 0 -i 24 -a 0 -x {2.0 3.1 -1 ------- null}
+ -t 0.530426666666667 -s 2 -d 3 -p tcp -e 1040 -c 0 -i 25 -a 0 -x {2.0 3.1 2 ------- null}
r -t 0.53112 -s 0 -d 1 -p cbr -e 210 -c 0 -i 10 -a 0 -x {0.0 1.0 4 ------- null}
r -t 0.53112 -s 3 -d 0 -p cbr -e 210 -c 0 -i 11 -a 0 -x {3.0 0.1 4 ------- null}
+ -t 0.53375 -s 0 -d 1 -p cbr -e 210 -c 0 -i 26 -a 0 -x {0.0 1.0 9 ------- null}
- -t 0.53375 -s 0 -d 1 -p cbr -e 210 -c 0 -i 26 -a 0 -x {0.0 1.0 9 ------- null}
h -t 0.53375 -s 0 -d 1 -p cbr -e 210 -c 0 -i 26 -a 0 -x {0.0 1.0 -1 ------- null}
+ -t 0.53375 -s 3 -d 0 -p cbr -e 210 -c 0 -i 27 -a 0 -x {3.0 0.1 9 ------- null}
- -t 0.53375 -s 3 -d 0 -p cbr -e 210 -c 0 -i 27 -a 0 -x {3.0 0.1 9 ------- null}
h -t 0.53375 -s 3 -d 0 -p cbr -e 210 -c 0 -i 27 -a 0 -x {3.0 0.1 -1 ------- null}
r -t 0.53487 -s 0 -d 1 -p cbr -e 210 -c 0 -i 14 -a 0 -x {0.0 1.0 5 ------- null}
r -t 0.53487 -s 3 -d 0 -p cbr -e 210 -c 0 -i 15 -a 0 -x {3.0 0.1 5 ------- null}
- -t 0.535973333333333 -s 1 -d 2 -p tcp -e 1040 -c 0 -i 23 -a 0 -x {1.1 2.1 2 ------- null}
h -t 0.535973333333333 -s 1 -d 2 -p tcp -e 1040 -c 0 -i 23 -a 0 -x {1.1 2.1 -1 ------- null}
- -t 0.535973333333333 -s 2 -d 3 -p tcp -e 1040 -c 0 -i 25 -a 0 -x {2.0 3.1 2 ------- null}
h -t 0.535973333333333 -s 2 -d 3 -p tcp -e 1040 -c 0 -i 25 -a 0 -x {2.0 3.1 -1 ------- null}
+ -t 0.5375 -s 0 -d 1 -p cbr -e 210 -c 0 -i 28 -a 0 -x {0.0 1.0 10 ------- null}
- -t 0.5375 -s 0 -d 1 -p cbr -e 210 -c 0 -i 28 -a 0 -x {0.0 1.0 10 ------- null}
h -t 0.5375 -s 0 -d 1 -p cbr -e 210 -c 0 -i 28 -a 0 -x {0.0 1.0 -1 ------- null}
+ -t 0.5375 -s 3 -d 0 -p cbr -e 210 -c 0 -i 29 -a 0 -x {3.0 0.1 10 ------- null}
- -t 0.5375 -s 3 -d 0 -p cbr -e 210 -c 0 -i 29 -a 0 -x {3.0 0.1 10 ------- null}
h -t 0.5375 -s 3 -d 0 -p cbr -e 210 -c 0 -i 29 -a 0 -x {3.0 0.1 -1 ------- null}
r -t 0.53862 -s 0 -d 1 -p cbr -e 210 -c 0 -i 16 -a 0 -x {0.0 1.0 6 ------- null}
r -t 0.53862 -s 3 -d 0 -p cbr -e 210 -c 0 -i 17 -a 0 -x {3.0 0.1 6 ------- null}
+ -t 0.54125 -s 0 -d 1 -p cbr -e 210 -c 0 -i 30 -a 0 -x {0.0 1.0 11 ------- null}
- -t 0.54125 -s 0 -d 1 -p cbr -e 210 -c 0 -i 30 -a 0 -x {0.0 1.0 11 ------- null}
h -t 0.54125 -s 0 -d 1 -p cbr -e 210 -c 0 -i 30 -a 0 -x {0.0 1.0 -1 ------- null}
+ -t 0.54125 -s 3 -d 0 -p cbr -e 210 -c 0 -i 31 -a 0 -x {3.0 0.1 11 ------- null}
- -t 0.54125 -s 3 -d 0 -p cbr -e 210 -c 0 -i 31 -a 0 -x {3.0 0.1 11 ------- null}
h -t 0.54125 -s 3 -d 0 -p cbr -e 210 -c 0 -i 31 -a 0 -x {3.0 0.1 -1 ------- null}
r -t 0.54237 -s 0 -d 1 -p cbr -e 210 -c 0 -i 18 -a 0 -x {0.0 1.0 7 ------- null}
r -t 0.54237 -s 3 -d 0 -p cbr -e 210 -c 0 -i 19 -a 0 -x {3.0 0.1 7 ------- null}
+ -t 0.545 -s 0 -d 1 -p cbr -e 210 -c 0 -i 32 -a 0 -x {0.0 1.0 12 ------- null}
- -t 0.545 -s 0 -d 1 -p cbr -e 210 -c 0 -i 32 -a 0 -x {0.0 1.0 12 ------- null}
h -t 0.545 -s 0 -d 1 -p cbr -e 210 -c 0 -i 32 -a 0 -x {0.0 1.0 -1 ------- null}
+ -t 0.545 -s 3 -d 0 -p cbr -e 210 -c 0 -i 33 -a 0 -x {3.0 0.1 12 ------- null}
- -t 0.545 -s 3 -d 0 -p cbr -e 210 -c 0 -i 33 -a 0 -x {3.0 0.1 12 ------- null}
h -t 0.545 -s 3 -d 0 -p cbr -e 210 -c 0 -i 33 -a 0 -x {3.0 0.1 -1 ------- null}
r -t 0.54612 -s 0 -d 1 -p cbr -e 210 -c 0 -i 20 -a 0 -x {0.0 1.0 8 ------- null}
r -t 0.54612 -s 3 -d 0 -p cbr -e 210 -c 0 -i 21 -a 0 -x {3.0 0.1 8 ------- null}
+ -t 0.54875 -s 0 -d 1 -p cbr -e 210 -c 0 -i 34 -a 0 -x {0.0 1.0 13 ------- null}
- -t 0.54875 -s 0 -d 1 -p cbr -e 210 -c 0 -i 34 -a 0 -x {0.0 1.0 13 ------- null}
h -t 0.54875 -s 0 -d 1 -p cbr -e 210 -c 0 -i 34 -a 0 -x {0.0 1.0 -1 ------- null}
+ -t 0.54875 -s 3 -d 0 -p cbr -e 210 -c 0 -i 35 -a 0 -x {3.0 0.1 13 ------- null}
- -t 0.54875 -s 3 -d 0 -p cbr -e 210 -c 0 -i 35 -a 0 -x {3.0 0.1 13 ------- null}
h -t 0.54875 -s 3 -d 0 -p cbr -e 210 -c 0 -i 35 -a 0 -x {3.0 0.1 -1 ------- null}
r -t 0.54987 -s 0 -d 1 -p cbr -e 210 -c 0 -i 26 -a 0 -x {0.0 1.0 9 ------- null}
r -t 0.54987 -s 3 -d 0 -p cbr -e 210 -c 0 -i 27 -a 0 -x {3.0 0.1 9 ------- null}
r -t 0.550973333333333 -s 1 -d 2 -p tcp -e 1040 -c 0 -i 22 -a 0 -x {1.1 2.1 1 ------- null}
+ -t 0.550973333333333 -s 2 -d 1 -p ack -e 40 -c 0 -i 36 -a 0 -x {2.1 1.1 1 ------- null}
- -t 0.550973333333333 -s 2 -d 1 -p ack -e 40 -c 0 -i 36 -a 0 -x {2.1 1.1 1 ------- null}
h -t 0.550973333333333 -s 2 -d 1 -p ack -e 40 -c 0 -i 36 -a 0 -x {2.1 1.1 -1 ------- null}
r -t 0.550973333333333 -s 2 -d 3 -p tcp -e 1040 -c 0 -i 24 -a 0 -x {2.0 3.1 1 ------- null}
+ -t 0.550973333333333 -s 3 -d 2 -p ack -e 40 -c 0 -i 37 -a 0 -x {3.1 2.0 1 ------- null}
- -t 0.550973333333333 -s 3 -d 2 -p ack -e 40 -c 0 -i 37 -a 0 -x {3.1 2.0 1 ------- null}
h -t 0.550973333333333 -s 3 -d 2 -p ack -e 40 -c 0 -i 37 -a 0 -x {3.1 2.0 -1 ------- null}
+ -t 0.5525 -s 0 -d 1 -p cbr -e 210 -c 0 -i 38 -a 0 -x {0.0 1.0 14 ------- null}
- -t 0.5525 -s 0 -d 1 -p cbr -e 210 -c 0 -i 38 -a 0 -x {0.0 1.0 14 ------- null}
h -t 0.5525 -s 0 -d 1 -p cbr -e 210 -c 0 -i 38 -a 0 -x {0.0 1.0 -1 ------- null}
+ -t 0.5525 -s 3 -d 0 -p cbr -e 210 -c 0 -i 39 -a 0 -x {3.0 0.1 14 ------- null}
- -t 0.5525 -s 3 -d 0 -p cbr -e 210 -c 0 -i 39 -a 0 -x {3.0 0.1 14 ------- null}
h -t 0.5525 -s 3 -d 0 -p cbr -e 210 -c 0 -i 39 -a 0 -x {3.0 0.1 -1 ------- null}
r -t 0.55362 -s 0 -d 1 -p cbr -e 210 -c 0 -i 28 -a 0 -x {0.0 1.0 10 ------- null}
r -t 0.55362 -s 3 -d 0 -p cbr -e 210 -c 0 -i 29 -a 0 -x {3.0 0.1 10 ------- null}
+ -t 0.55625 -s 0 -d 1 -p cbr -e 210 -c 0 -i 40 -a 0 -x {0.0 1.0 15 ------- null}
- -t 0.55625 -s 0 -d 1 -p cbr -e 210 -c 0 -i 40 -a 0 -x {0.0 1.0 15 ------- null}
h -t 0.55625 -s 0 -d 1 -p cbr -e 210 -c 0 -i 40 -a 0 -x {0.0 1.0 -1 ------- null}
+ -t 0.55625 -s 3 -d 0 -p cbr -e 210 -c 0 -i 41 -a 0 -x {3.0 0.1 15 ------- null}
- -t 0.55625 -s 3 -d 0 -p cbr -e 210 -c 0 -i 41 -a 0 -x {3.0 0.1 15 ------- null}
h -t 0.55625 -s 3 -d 0 -p cbr -e 210 -c 0 -i 41 -a 0 -x {3.0 0.1 -1 ------- null}
r -t 0.55652 -s 1 -d 2 -p tcp -e 1040 -c 0 -i 23 -a 0 -x {1.1 2.1 2 ------- null}
+ -t 0.55652 -s 2 -d 1 -p ack -e 40 -c 0 -i 42 -a 0 -x {2.1 1.1 2 ------- null}
- -t 0.55652 -s 2 -d 1 -p ack -e 40 -c 0 -i 42 -a 0 -x {2.1 1.1 2 ------- null}
h -t 0.55652 -s 2 -d 1 -p ack -e 40 -c 0 -i 42 -a 0 -x {2.1 1.1 -1 ------- null}
r -t 0.55652 -s 2 -d 3 -p tcp -e 1040 -c 0 -i 25 -a 0 -x {2.0 3.1 2 ------- null}
+ -t 0.55652 -s 3 -d 2 -p ack -e 40 -c 0 -i 43 -a 0 -x {3.1 2.0 2 ------- null}
- -t 0.55652 -s 3 -d 2 -p ack -e 40 -c 0 -i 43 -a 0 -x {3.1 2.0 2 ------- null}
h -t 0.55652 -s 3 -d 2 -p ack -e 40 -c 0 -i 43 -a 0 -x {3.1 2.0 -1 ------- null}
r -t 0.55737 -s 0 -d 1 -p cbr -e 210 -c 0 -i 30 -a 0 -x {0.0 1.0 11 ------- null}
r -t 0.55737 -s 3 -d 0 -p cbr -e 210 -c 0 -i 31 -a 0 -x {3.0 0.1 11 ------- null}
+ -t 0.56 -s 0 -d 1 -p cbr -e 210 -c 0 -i 44 -a 0 -x {0.0 1.0 16 ------- null}
- -t 0.56 -s 0 -d 1 -p cbr -e 210 -c 0 -i 44 -a 0 -x {0.0 1.0 16 ------- null}
h -t 0.56 -s 0 -d 1 -p cbr -e 210 -c 0 -i 44 -a 0 -x {0.0 1.0 -1 ------- null}
+ -t 0.56 -s 3 -d 0 -p cbr -e 210 -c 0 -i 45 -a 0 -x {3.0 0.1 16 ------- null}
- -t 0.56 -s 3 -d 0 -p cbr -e 210 -c 0 -i 45 -a 0 -x {3.0 0.1 16 ------- null}
h -t 0.56 -s 3 -d 0 -p cbr -e 210 -c 0 -i 45 -a 0 -x {3.0 0.1 -1 ------- null}
r -t 0.56112 -s 0 -d 1 -p cbr -e 210 -c 0 -i 32 -a 0 -x {0.0 1.0 12 ------- null}
r -t 0.56112 -s 3 -d 0 -p cbr -e 210 -c 0 -i 33 -a 0 -x {3.0 0.1 12 ------- null}
+ -t 0.563750000000001 -s 0 -d 1 -p cbr -e 210 -c 0 -i 46 -a 0 -x {0.0 1.0 17 ------- null}
- -t 0.563750000000001 -s 0 -d 1 -p cbr -e 210 -c 0 -i 46 -a 0 -x {0.0 1.0 17 ------- null}
h -t 0.563750000000001 -s 0 -d 1 -p cbr -e 210 -c 0 -i 46 -a 0 -x {0.0 1.0 -1 ------- null}
+ -t 0.563750000000001 -s 3 -d 0 -p cbr -e 210 -c 0 -i 47 -a 0 -x {3.0 0.1 17 ------- null}
- -t 0.563750000000001 -s 3 -d 0 -p cbr -e 210 -c 0 -i 47 -a 0 -x {3.0 0.1 17 ------- null}
h -t 0.563750000000001 -s 3 -d 0 -p cbr -e 210 -c 0 -i 47 -a 0 -x {3.0 0.1 -1 ------- null}
r -t 0.56487 -s 0 -d 1 -p cbr -e 210 -c 0 -i 34 -a 0 -x {0.0 1.0 13 ------- null}
r -t 0.56487 -s 3 -d 0 -p cbr -e 210 -c 0 -i 35 -a 0 -x {3.0 0.1 13 ------- null}
r -t 0.566186666666667 -s 2 -d 1 -p ack -e 40 -c 0 -i 36 -a 0 -x {2.1 1.1 1 ------- null}
+ -t 0.566186666666667 -s 1 -d 2 -p tcp -e 1040 -c 0 -i 48 -a 0 -x {1.1 2.1 3 ------- null}
- -t 0.566186666666667 -s 1 -d 2 -p tcp -e 1040 -c 0 -i 48 -a 0 -x {1.1 2.1 3 ------- null}
h -t 0.566186666666667 -s 1 -d 2 -p tcp -e 1040 -c 0 -i 48 -a 0 -x {1.1 2.1 -1 ------- null}
+ -t 0.566186666666667 -s 1 -d 2 -p tcp -e 1040 -c 0 -i 49 -a 0 -x {1.1 2.1 4 ------- null}
r -t 0.566186666666667 -s 3 -d 2 -p ack -e 40 -c 0 -i 37 -a 0 -x {3.1 2.0 1 ------- null}
+ -t 0.566186666666667 -s 2 -d 3 -p tcp -e 1040 -c 0 -i 50 -a 0 -x {2.0 3.1 3 ------- null}
- -t 0.566186666666667 -s 2 -d 3 -p tcp -e 1040 -c 0 -i 50 -a 0 -x {2.0 3.1 3 ------- null}
h -t 0.566186666666667 -s 2 -d 3 -p tcp -e 1040 -c 0 -i 50 -a 0 -x {2.0 3.1 -1 ------- null}
+ -t 0.566186666666667 -s 2 -d 3 -p tcp -e 1040 -c 0 -i 51 -a 0 -x {2.0 3.1 4 ------- null}
+ -t 0.567500000000001 -s 0 -d 1 -p cbr -e 210 -c 0 -i 52 -a 0 -x {0.0 1.0 18 ------- null}
- -t 0.567500000000001 -s 0 -d 1 -p cbr -e 210 -c 0 -i 52 -a 0 -x {0.0 1.0 18 ------- null}
h -t 0.567500000000001 -s 0 -d 1 -p cbr -e 210 -c 0 -i 52 -a 0 -x {0.0 1.0 -1 ------- null}
+ -t 0.567500000000001 -s 3 -d 0 -p cbr -e 210 -c 0 -i 53 -a 0 -x {3.0 0.1 18 ------- null}
- -t 0.567500000000001 -s 3 -d 0 -p cbr -e 210 -c 0 -i 53 -a 0 -x {3.0 0.1 18 ------- null}
h -t 0.567500000000001 -s 3 -d 0 -p cbr -e 210 -c 0 -i 53 -a 0 -x {3.0 0.1 -1 ------- null}
r -t 0.56862 -s 0 -d 1 -p cbr -e 210 -c 0 -i 38 -a 0 -x {0.0 1.0 14 ------- null}
r -t 0.56862 -s 3 -d 0 -p cbr -e 210 -c 0 -i 39 -a 0 -x {3.0 0.1 14 ------- null}
+ -t 0.571250000000001 -s 0 -d 1 -p cbr -e 210 -c 0 -i 54 -a 0 -x {0.0 1.0 19 ------- null}
- -t 0.571250000000001 -s 0 -d 1 -p cbr -e 210 -c 0 -i 54 -a 0 -x {0.0 1.0 19 ------- null}
h -t 0.571250000000001 -s 0 -d 1 -p cbr -e 210 -c 0 -i 54 -a 0 -x {0.0 1.0 -1 ------- null}
+ -t 0.571250000000001 -s 3 -d 0 -p cbr -e 210 -c 0 -i 55 -a 0 -x {3.0 0.1 19 ------- null}
- -t 0.571250000000001 -s 3 -d 0 -p cbr -e 210 -c 0 -i 55 -a 0 -x {3.0 0.1 19 ------- null}
h -t 0.571250000000001 -s 3 -d 0 -p cbr -e 210 -c 0 -i 55 -a 0 -x {3.0 0.1 -1 ------- null}
r -t 0.571733333333333 -s 2 -d 1 -p ack -e 40 -c 0 -i 42 -a 0 -x {2.1 1.1 2 ------- null}
+ -t 0.571733333333333 -s 1 -d 2 -p tcp -e 1040 -c 0 -i 56 -a 0 -x {1.1 2.1 5 ------- null}
+ -t 0.571733333333333 -s 1 -d 2 -p tcp -e 1040 -c 0 -i 57 -a 0 -x {1.1 2.1 6 ------- null}
r -t 0.571733333333333 -s 3 -d 2 -p ack -e 40 -c 0 -i 43 -a 0 -x {3.1 2.0 2 ------- null}
+ -t 0.571733333333333 -s 2 -d 3 -p tcp -e 1040 -c 0 -i 58 -a 0 -x {2.0 3.1 5 ------- null}
+ -t 0.571733333333333 -s 2 -d 3 -p tcp -e 1040 -c 0 -i 59 -a 0 -x {2.0 3.1 6 ------- null}
- -t 0.571733333333333 -s 1 -d 2 -p tcp -e 1040 -c 0 -i 49 -a 0 -x {1.1 2.1 4 ------- null}
h -t 0.571733333333333 -s 1 -d 2 -p tcp -e 1040 -c 0 -i 49 -a 0 -x {1.1 2.1 -1 ------- null}
- -t 0.571733333333333 -s 2 -d 3 -p tcp -e 1040 -c 0 -i 51 -a 0 -x {2.0 3.1 4 ------- null}
h -t 0.571733333333333 -s 2 -d 3 -p tcp -e 1040 -c 0 -i 51 -a 0 -x {2.0 3.1 -1 ------- null}
r -t 0.57237 -s 0 -d 1 -p cbr -e 210 -c 0 -i 40 -a 0 -x {0.0 1.0 15 ------- null}
r -t 0.57237 -s 3 -d 0 -p cbr -e 210 -c 0 -i 41 -a 0 -x {3.0 0.1 15 ------- null}
+ -t 0.575000000000001 -s 0 -d 1 -p cbr -e 210 -c 0 -i 60 -a 0 -x {0.0 1.0 20 ------- null}
- -t 0.575000000000001 -s 0 -d 1 -p cbr -e 210 -c 0 -i 60 -a 0 -x {0.0 1.0 20 ------- null}
h -t 0.575000000000001 -s 0 -d 1 -p cbr -e 210 -c 0 -i 60 -a 0 -x {0.0 1.0 -1 ------- null}
+ -t 0.575000000000001 -s 3 -d 0 -p cbr -e 210 -c 0 -i 61 -a 0 -x {3.0 0.1 20 ------- null}
- -t 0.575000000000001 -s 3 -d 0 -p cbr -e 210 -c 0 -i 61 -a 0 -x {3.0 0.1 20 ------- null}
h -t 0.575000000000001 -s 3 -d 0 -p cbr -e 210 -c 0 -i 61 -a 0 -x {3.0 0.1 -1 ------- null}
r -t 0.576120000000001 -s 0 -d 1 -p cbr -e 210 -c 0 -i 44 -a 0 -x {0.0 1.0 16 ------- null}
r -t 0.576120000000001 -s 3 -d 0 -p cbr -e 210 -c 0 -i 45 -a 0 -x {3.0 0.1 16 ------- null}
- -t 0.57728 -s 1 -d 2 -p tcp -e 1040 -c 0 -i 56 -a 0 -x {1.1 2.1 5 ------- null}
h -t 0.57728 -s 1 -d 2 -p tcp -e 1040 -c 0 -i 56 -a 0 -x {1.1 2.1 -1 ------- null}
- -t 0.57728 -s 2 -d 3 -p tcp -e 1040 -c 0 -i 58 -a 0 -x {2.0 3.1 5 ------- null}
h -t 0.57728 -s 2 -d 3 -p tcp -e 1040 -c 0 -i 58 -a 0 -x {2.0 3.1 -1 ------- null}
+ -t 0.578750000000001 -s 0 -d 1 -p cbr -e 210 -c 0 -i 62 -a 0 -x {0.0 1.0 21 ------- null}
- -t 0.578750000000001 -s 0 -d 1 -p cbr -e 210 -c 0 -i 62 -a 0 -x {0.0 1.0 21 ------- null}
h -t 0.578750000000001 -s 0 -d 1 -p cbr -e 210 -c 0 -i 62 -a 0 -x {0.0 1.0 -1 ------- null}
+ -t 0.578750000000001 -s 3 -d 0 -p cbr -e 210 -c 0 -i 63 -a 0 -x {3.0 0.1 21 ------- null}
- -t 0.578750000000001 -s 3 -d 0 -p cbr -e 210 -c 0 -i 63 -a 0 -x {3.0 0.1 21 ------- null}
h -t 0.578750000000001 -s 3 -d 0 -p cbr -e 210 -c 0 -i 63 -a 0 -x {3.0 0.1 -1 ------- null}
r -t 0.579870000000001 -s 0 -d 1 -p cbr -e 210 -c 0 -i 46 -a 0 -x {0.0 1.0 17 ------- null}
r -t 0.579870000000001 -s 3 -d 0 -p cbr -e 210 -c 0 -i 47 -a 0 -x {3.0 0.1 17 ------- null}
+ -t 0.582500000000001 -s 0 -d 1 -p cbr -e 210 -c 0 -i 64 -a 0 -x {0.0 1.0 22 ------- null}
- -t 0.582500000000001 -s 0 -d 1 -p cbr -e 210 -c 0 -i 64 -a 0 -x {0.0 1.0 22 ------- null}
h -t 0.582500000000001 -s 0 -d 1 -p cbr -e 210 -c 0 -i 64 -a 0 -x {0.0 1.0 -1 ------- null}
+ -t 0.582500000000001 -s 3 -d 0 -p cbr -e 210 -c 0 -i 65 -a 0 -x {3.0 0.1 22 ------- null}
- -t 0.582500000000001 -s 3 -d 0 -p cbr -e 210 -c 0 -i 65 -a 0 -x {3.0 0.1 22 ------- null}
h -t 0.582500000000001 -s 3 -d 0 -p cbr -e 210 -c 0 -i 65 -a 0 -x {3.0 0.1 -1 ------- null}
- -t 0.582826666666667 -s 1 -d 2 -p tcp -e 1040 -c 0 -i 57 -a 0 -x {1.1 2.1 6 ------- null}
h -t 0.582826666666667 -s 1 -d 2 -p tcp -e 1040 -c 0 -i 57 -a 0 -x {1.1 2.1 -1 ------- null}
- -t 0.582826666666667 -s 2 -d 3 -p tcp -e 1040 -c 0 -i 59 -a 0 -x {2.0 3.1 6 ------- null}
h -t 0.582826666666667 -s 2 -d 3 -p tcp -e 1040 -c 0 -i 59 -a 0 -x {2.0 3.1 -1 ------- null}
r -t 0.583620000000001 -s 0 -d 1 -p cbr -e 210 -c 0 -i 52 -a 0 -x {0.0 1.0 18 ------- null}
r -t 0.583620000000001 -s 3 -d 0 -p cbr -e 210 -c 0 -i 53 -a 0 -x {3.0 0.1 18 ------- null}
+ -t 0.586250000000001 -s 0 -d 1 -p cbr -e 210 -c 0 -i 66 -a 0 -x {0.0 1.0 23 ------- null}
- -t 0.586250000000001 -s 0 -d 1 -p cbr -e 210 -c 0 -i 66 -a 0 -x {0.0 1.0 23 ------- null}
h -t 0.586250000000001 -s 0 -d 1 -p cbr -e 210 -c 0 -i 66 -a 0 -x {0.0 1.0 -1 ------- null}
+ -t 0.586250000000001 -s 3 -d 0 -p cbr -e 210 -c 0 -i 67 -a 0 -x {3.0 0.1 23 ------- null}
- -t 0.586250000000001 -s 3 -d 0 -p cbr -e 210 -c 0 -i 67 -a 0 -x {3.0 0.1 23 ------- null}
h -t 0.586250000000001 -s 3 -d 0 -p cbr -e 210 -c 0 -i 67 -a 0 -x {3.0 0.1 -1 ------- null}
r -t 0.586733333333333 -s 1 -d 2 -p tcp -e 1040 -c 0 -i 48 -a 0 -x {1.1 2.1 3 ------- null}
+ -t 0.586733333333333 -s 2 -d 1 -p ack -e 40 -c 0 -i 68 -a 0 -x {2.1 1.1 3 ------- null}
- -t 0.586733333333333 -s 2 -d 1 -p ack -e 40 -c 0 -i 68 -a 0 -x {2.1 1.1 3 ------- null}
h -t 0.586733333333333 -s 2 -d 1 -p ack -e 40 -c 0 -i 68 -a 0 -x {2.1 1.1 -1 ------- null}
r -t 0.586733333333333 -s 2 -d 3 -p tcp -e 1040 -c 0 -i 50 -a 0 -x {2.0 3.1 3 ------- null}
+ -t 0.586733333333333 -s 3 -d 2 -p ack -e 40 -c 0 -i 69 -a 0 -x {3.1 2.0 3 ------- null}
- -t 0.586733333333333 -s 3 -d 2 -p ack -e 40 -c 0 -i 69 -a 0 -x {3.1 2.0 3 ------- null}
h -t 0.586733333333333 -s 3 -d 2 -p ack -e 40 -c 0 -i 69 -a 0 -x {3.1 2.0 -1 ------- null}
r -t 0.587370000000001 -s 0 -d 1 -p cbr -e 210 -c 0 -i 54 -a 0 -x {0.0 1.0 19 ------- null}
r -t 0.587370000000001 -s 3 -d 0 -p cbr -e 210 -c 0 -i 55 -a 0 -x {3.0 0.1 19 ------- null}
+ -t 0.590000000000001 -s 0 -d 1 -p cbr -e 210 -c 0 -i 70 -a 0 -x {0.0 1.0 24 ------- null}
- -t 0.590000000000001 -s 0 -d 1 -p cbr -e 210 -c 0 -i 70 -a 0 -x {0.0 1.0 24 ------- null}
h -t 0.590000000000001 -s 0 -d 1 -p cbr -e 210 -c 0 -i 70 -a 0 -x {0.0 1.0 -1 ------- null}
+ -t 0.590000000000001 -s 3 -d 0 -p cbr -e 210 -c 0 -i 71 -a 0 -x {3.0 0.1 24 ------- null}
- -t 0.590000000000001 -s 3 -d 0 -p cbr -e 210 -c 0 -i 71 -a 0 -x {3.0 0.1 24 ------- null}
h -t 0.590000000000001 -s 3 -d 0 -p cbr -e 210 -c 0 -i 71 -a 0 -x {3.0 0.1 -1 ------- null}
r -t 0.591120000000001 -s 0 -d 1 -p cbr -e 210 -c 0 -i 60 -a 0 -x {0.0 1.0 20 ------- null}
r -t 0.591120000000001 -s 3 -d 0 -p cbr -e 210 -c 0 -i 61 -a 0 -x {3.0 0.1 20 ------- null}
r -t 0.59228 -s 1 -d 2 -p tcp -e 1040 -c 0 -i 49 -a 0 -x {1.1 2.1 4 ------- null}
+ -t 0.59228 -s 2 -d 1 -p ack -e 40 -c 0 -i 72 -a 0 -x {2.1 1.1 4 ------- null}
- -t 0.59228 -s 2 -d 1 -p ack -e 40 -c 0 -i 72 -a 0 -x {2.1 1.1 4 ------- null}
h -t 0.59228 -s 2 -d 1 -p ack -e 40 -c 0 -i 72 -a 0 -x {2.1 1.1 -1 ------- null}
r -t 0.59228 -s 2 -d 3 -p tcp -e 1040 -c 0 -i 51 -a 0 -x {2.0 3.1 4 ------- null}
+ -t 0.59228 -s 3 -d 2 -p ack -e 40 -c 0 -i 73 -a 0 -x {3.1 2.0 4 ------- null}
- -t 0.59228 -s 3 -d 2 -p ack -e 40 -c 0 -i 73 -a 0 -x {3.1 2.0 4 ------- null}
h -t 0.59228 -s 3 -d 2 -p ack -e 40 -c 0 -i 73 -a 0 -x {3.1 2.0 -1 ------- null}
+ -t 0.593750000000001 -s 0 -d 1 -p cbr -e 210 -c 0 -i 74 -a 0 -x {0.0 1.0 25 ------- null}
- -t 0.593750000000001 -s 0 -d 1 -p cbr -e 210 -c 0 -i 74 -a 0 -x {0.0 1.0 25 ------- null}
h -t 0.593750000000001 -s 0 -d 1 -p cbr -e 210 -c 0 -i 74 -a 0 -x {0.0 1.0 -1 ------- null}
+ -t 0.593750000000001 -s 3 -d 0 -p cbr -e 210 -c 0 -i 75 -a 0 -x {3.0 0.1 25 ------- null}
- -t 0.593750000000001 -s 3 -d 0 -p cbr -e 210 -c 0 -i 75 -a 0 -x {3.0 0.1 25 ------- null}
h -t 0.593750000000001 -s 3 -d 0 -p cbr -e 210 -c 0 -i 75 -a 0 -x {3.0 0.1 -1 ------- null}
r -t 0.594870000000001 -s 0 -d 1 -p cbr -e 210 -c 0 -i 62 -a 0 -x {0.0 1.0 21 ------- null}
r -t 0.594870000000001 -s 3 -d 0 -p cbr -e 210 -c 0 -i 63 -a 0 -x {3.0 0.1 21 ------- null}
+ -t 0.597500000000001 -s 0 -d 1 -p cbr -e 210 -c 0 -i 76 -a 0 -x {0.0 1.0 26 ------- null}
- -t 0.597500000000001 -s 0 -d 1 -p cbr -e 210 -c 0 -i 76 -a 0 -x {0.0 1.0 26 ------- null}
h -t 0.597500000000001 -s 0 -d 1 -p cbr -e 210 -c 0 -i 76 -a 0 -x {0.0 1.0 -1 ------- null}
+ -t 0.597500000000001 -s 3 -d 0 -p cbr -e 210 -c 0 -i 77 -a 0 -x {3.0 0.1 26 ------- null}
- -t 0.597500000000001 -s 3 -d 0 -p cbr -e 210 -c 0 -i 77 -a 0 -x {3.0 0.1 26 ------- null}
h -t 0.597500000000001 -s 3 -d 0 -p cbr -e 210 -c 0 -i 77 -a 0 -x {3.0 0.1 -1 ------- null}
r -t 0.597826666666667 -s 1 -d 2 -p tcp -e 1040 -c 0 -i 56 -a 0 -x {1.1 2.1 5 ------- null}
+ -t 0.597826666666667 -s 2 -d 1 -p ack -e 40 -c 0 -i 78 -a 0 -x {2.1 1.1 5 ------- null}
- -t 0.597826666666667 -s 2 -d 1 -p ack -e 40 -c 0 -i 78 -a 0 -x {2.1 1.1 5 ------- null}
h -t 0.597826666666667 -s 2 -d 1 -p ack -e 40 -c 0 -i 78 -a 0 -x {2.1 1.1 -1 ------- null}
r -t 0.597826666666667 -s 2 -d 3 -p tcp -e 1040 -c 0 -i 58 -a 0 -x {2.0 3.1 5 ------- null}
+ -t 0.597826666666667 -s 3 -d 2 -p ack -e 40 -c 0 -i 79 -a 0 -x {3.1 2.0 5 ------- null}
- -t 0.597826666666667 -s 3 -d 2 -p ack -e 40 -c 0 -i 79 -a 0 -x {3.1 2.0 5 ------- null}
h -t 0.597826666666667 -s 3 -d 2 -p ack -e 40 -c 0 -i 79 -a 0 -x {3.1 2.0 -1 ------- null}
r -t 0.598620000000001 -s 0 -d 1 -p cbr -e 210 -c 0 -i 64 -a 0 -x {0.0 1.0 22 ------- null}
r -t 0.598620000000001 -s 3 -d 0 -p cbr -e 210 -c 0 -i 65 -a 0 -x {3.0 0.1 22 ------- null}
+ -t 0.601250000000001 -s 0 -d 1 -p cbr -e 210 -c 0 -i 80 -a 0 -x {0.0 1.0 27 ------- null}
- -t 0.601250000000001 -s 0 -d 1 -p cbr -e 210 -c 0 -i 80 -a 0 -x {0.0 1.0 27 ------- null}
h -t 0.601250000000001 -s 0 -d 1 -p cbr -e 210 -c 0 -i 80 -a 0 -x {0.0 1.0 -1 ------- null}
+ -t 0.601250000000001 -s 3 -d 0 -p cbr -e 210 -c 0 -i 81 -a 0 -x {3.0 0.1 27 ------- null}
- -t 0.601250000000001 -s 3 -d 0 -p cbr -e 210 -c 0 -i 81 -a 0 -x {3.0 0.1 27 ------- null}
h -t 0.601250000000001 -s 3 -d 0 -p cbr -e 210 -c 0 -i 81 -a 0 -x {3.0 0.1 -1 ------- null}
r -t 0.601946666666667 -s 2 -d 1 -p ack -e 40 -c 0 -i 68 -a 0 -x {2.1 1.1 3 ------- null}
+ -t 0.601946666666667 -s 1 -d 2 -p tcp -e 1040 -c 0 -i 82 -a 0 -x {1.1 2.1 7 ------- null}
- -t 0.601946666666667 -s 1 -d 2 -p tcp -e 1040 -c 0 -i 82 -a 0 -x {1.1 2.1 7 ------- null}
h -t 0.601946666666667 -s 1 -d 2 -p tcp -e 1040 -c 0 -i 82 -a 0 -x {1.1 2.1 -1 ------- null}
+ -t 0.601946666666667 -s 1 -d 2 -p tcp -e 1040 -c 0 -i 83 -a 0 -x {1.1 2.1 8 ------- null}
r -t 0.601946666666667 -s 3 -d 2 -p ack -e 40 -c 0 -i 69 -a 0 -x {3.1 2.0 3 ------- null}
+ -t 0.601946666666667 -s 2 -d 3 -p tcp -e 1040 -c 0 -i 84 -a 0 -x {2.0 3.1 7 ------- null}
- -t 0.601946666666667 -s 2 -d 3 -p tcp -e 1040 -c 0 -i 84 -a 0 -x {2.0 3.1 7 ------- null}
h -t 0.601946666666667 -s 2 -d 3 -p tcp -e 1040 -c 0 -i 84 -a 0 -x {2.0 3.1 -1 ------- null}
+ -t 0.601946666666667 -s 2 -d 3 -p tcp -e 1040 -c 0 -i 85 -a 0 -x {2.0 3.1 8 ------- null}
r -t 0.602370000000001 -s 0 -d 1 -p cbr -e 210 -c 0 -i 66 -a 0 -x {0.0 1.0 23 ------- null}
r -t 0.602370000000001 -s 3 -d 0 -p cbr -e 210 -c 0 -i 67 -a 0 -x {3.0 0.1 23 ------- null}
r -t 0.603373333333333 -s 1 -d 2 -p tcp -e 1040 -c 0 -i 57 -a 0 -x {1.1 2.1 6 ------- null}
+ -t 0.603373333333333 -s 2 -d 1 -p ack -e 40 -c 0 -i 86 -a 0 -x {2.1 1.1 6 ------- null}
- -t 0.603373333333333 -s 2 -d 1 -p ack -e 40 -c 0 -i 86 -a 0 -x {2.1 1.1 6 ------- null}
h -t 0.603373333333333 -s 2 -d 1 -p ack -e 40 -c 0 -i 86 -a 0 -x {2.1 1.1 -1 ------- null}
r -t 0.603373333333333 -s 2 -d 3 -p tcp -e 1040 -c 0 -i 59 -a 0 -x {2.0 3.1 6 ------- null}
+ -t 0.603373333333333 -s 3 -d 2 -p ack -e 40 -c 0 -i 87 -a 0 -x {3.1 2.0 6 ------- null}
- -t 0.603373333333333 -s 3 -d 2 -p ack -e 40 -c 0 -i 87 -a 0 -x {3.1 2.0 6 ------- null}
h -t 0.603373333333333 -s 3 -d 2 -p ack -e 40 -c 0 -i 87 -a 0 -x {3.1 2.0 -1 ------- null}
+ -t 0.605000000000001 -s 0 -d 1 -p cbr -e 210 -c 0 -i 88 -a 0 -x {0.0 1.0 28 ------- null}
- -t 0.605000000000001 -s 0 -d 1 -p cbr -e 210 -c 0 -i 88 -a 0 -x {0.0 1.0 28 ------- null}
h -t 0.605000000000001 -s 0 -d 1 -p cbr -e 210 -c 0 -i 88 -a 0 -x {0.0 1.0 -1 ------- null}
+ -t 0.605000000000001 -s 3 -d 0 -p cbr -e 210 -c 0 -i 89 -a 0 -x {3.0 0.1 28 ------- null}
- -t 0.605000000000001 -s 3 -d 0 -p cbr -e 210 -c 0 -i 89 -a 0 -x {3.0 0.1 28 ------- null}
h -t 0.605000000000001 -s 3 -d 0 -p cbr -e 210 -c 0 -i 89 -a 0 -x {3.0 0.1 -1 ------- null}
r -t 0.606120000000001 -s 0 -d 1 -p cbr -e 210 -c 0 -i 70 -a 0 -x {0.0 1.0 24 ------- null}
r -t 0.606120000000001 -s 3 -d 0 -p cbr -e 210 -c 0 -i 71 -a 0 -x {3.0 0.1 24 ------- null}
r -t 0.607493333333333 -s 2 -d 1 -p ack -e 40 -c 0 -i 72 -a 0 -x {2.1 1.1 4 ------- null}
+ -t 0.607493333333333 -s 1 -d 2 -p tcp -e 1040 -c 0 -i 90 -a 0 -x {1.1 2.1 9 ------- null}