V -t * -v 1.0a5 -a 0
A -t * -n 1 -p 0 -o 0x7fffffff -c 30 -a 1
A -t * -h 1 -m 1073741823 -s 0
n -t * -a 4 -s 4 -S UP -v circle -c black -i black
n -t * -a 0 -s 0 -S UP -v circle -c black -i black
n -t * -a 1 -s 1 -S UP -v circle -c black -i black
n -t * -a 2 -s 2 -S UP -v circle -c black -i black
n -t * -a 3 -s 3 -S UP -v circle -c black -i black
l -t * -s 0 -d 2 -S UP -r 1000000 -D 0.002 -c black
l -t * -s 0 -d 3 -S UP -r 1000000 -D 0.002 -c black
l -t * -s 1 -d 3 -S UP -r 1000000 -D 0.002 -c black
l -t * -s 2 -d 4 -S UP -r 1000000 -D 0.002 -c black
l -t * -s 0 -d 4 -S UP -r 1000000 -D 0.002 -c black -o right
l -t * -s 1 -d 0 -S UP -r 1000000 -D 0.002 -c black -o right-down
l -t * -s 1 -d 2 -S UP -r 1000000 -D 0.002 -c black -o right-up
l -t * -s 3 -d 4 -S UP -r 1000000 -D 0.002 -c black -o left-down
l -t * -s 2 -d 3 -S UP -r 1000000 -D 0.002 -c black -o right-down
+ -t 0.5 -s 1 -d 0 -p tcp -e 40 -c 0 -i 0 -a 0 -x {1.0 4.0 0 ------- null}
- -t 0.5 -s 1 -d 0 -p tcp -e 40 -c 0 -i 0 -a 0 -x {1.0 4.0 0 ------- null}
h -t 0.5 -s 1 -d 0 -p tcp -e 40 -c 0 -i 0 -a 0 -x {1.0 4.0 -1 ------- null}
r -t 0.50232 -s 1 -d 0 -p tcp -e 40 -c 0 -i 0 -a 0 -x {1.0 4.0 0 ------- null}
+ -t 0.50232 -s 0 -d 4 -p tcp -e 40 -c 0 -i 0 -a 0 -x {1.0 4.0 0 ------- null}
- -t 0.50232 -s 0 -d 4 -p tcp -e 40 -c 0 -i 0 -a 0 -x {1.0 4.0 0 ------- null}
h -t 0.50232 -s 0 -d 4 -p tcp -e 40 -c 0 -i 0 -a 0 -x {1.0 4.0 -1 ------- null}
r -t 0.50464 -s 0 -d 4 -p tcp -e 40 -c 0 -i 0 -a 0 -x {1.0 4.0 0 ------- null}
+ -t 0.50464 -s 4 -d 0 -p ack -e 40 -c 0 -i 1 -a 0 -x {4.0 1.0 0 ------- null}
- -t 0.50464 -s 4 -d 0 -p ack -e 40 -c 0 -i 1 -a 0 -x {4.0 1.0 0 ------- null}
h -t 0.50464 -s 4 -d 0 -p ack -e 40 -c 0 -i 1 -a 0 -x {4.0 1.0 -1 ------- null}
r -t 0.50696 -s 4 -d 0 -p ack -e 40 -c 0 -i 1 -a 0 -x {4.0 1.0 0 ------- null}
+ -t 0.50696 -s 0 -d 1 -p ack -e 40 -c 0 -i 1 -a 0 -x {4.0 1.0 0 ------- null}
- -t 0.50696 -s 0 -d 1 -p ack -e 40 -c 0 -i 1 -a 0 -x {4.0 1.0 0 ------- null}
h -t 0.50696 -s 0 -d 1 -p ack -e 40 -c 0 -i 1 -a 0 -x {4.0 1.0 -1 ------- null}
r -t 0.50928 -s 0 -d 1 -p ack -e 40 -c 0 -i 1 -a 0 -x {4.0 1.0 0 ------- null}
+ -t 0.50928 -s 1 -d 0 -p tcp -e 1040 -c 0 -i 2 -a 0 -x {1.0 4.0 1 ------- null}
- -t 0.50928 -s 1 -d 0 -p tcp -e 1040 -c 0 -i 2 -a 0 -x {1.0 4.0 1 ------- null}
h -t 0.50928 -s 1 -d 0 -p tcp -e 1040 -c 0 -i 2 -a 0 -x {1.0 4.0 -1 ------- null}
+ -t 0.50928 -s 1 -d 0 -p tcp -e 1040 -c 0 -i 3 -a 0 -x {1.0 4.0 2 ------- null}
- -t 0.5176 -s 1 -d 0 -p tcp -e 1040 -c 0 -i 3 -a 0 -x {1.0 4.0 2 ------- null}
h -t 0.5176 -s 1 -d 0 -p tcp -e 1040 -c 0 -i 3 -a 0 -x {1.0 4.0 -1 ------- null}
r -t 0.5196 -s 1 -d 0 -p tcp -e 1040 -c 0 -i 2 -a 0 -x {1.0 4.0 1 ------- null}
+ -t 0.5196 -s 0 -d 4 -p tcp -e 1040 -c 0 -i 2 -a 0 -x {1.0 4.0 1 ------- null}
- -t 0.5196 -s 0 -d 4 -p tcp -e 1040 -c 0 -i 2 -a 0 -x {1.0 4.0 1 ------- null}
h -t 0.5196 -s 0 -d 4 -p tcp -e 1040 -c 0 -i 2 -a 0 -x {1.0 4.0 -1 ------- null}
r -t 0.52792 -s 1 -d 0 -p tcp -e 1040 -c 0 -i 3 -a 0 -x {1.0 4.0 2 ------- null}
+ -t 0.52792 -s 0 -d 4 -p tcp -e 1040 -c 0 -i 3 -a 0 -x {1.0 4.0 2 ------- null}
- -t 0.52792 -s 0 -d 4 -p tcp -e 1040 -c 0 -i 3 -a 0 -x {1.0 4.0 2 ------- null}
h -t 0.52792 -s 0 -d 4 -p tcp -e 1040 -c 0 -i 3 -a 0 -x {1.0 4.0 -1 ------- null}
r -t 0.52992 -s 0 -d 4 -p tcp -e 1040 -c 0 -i 2 -a 0 -x {1.0 4.0 1 ------- null}
+ -t 0.52992 -s 4 -d 0 -p ack -e 40 -c 0 -i 4 -a 0 -x {4.0 1.0 1 ------- null}
- -t 0.52992 -s 4 -d 0 -p ack -e 40 -c 0 -i 4 -a 0 -x {4.0 1.0 1 ------- null}
h -t 0.52992 -s 4 -d 0 -p ack -e 40 -c 0 -i 4 -a 0 -x {4.0 1.0 -1 ------- null}
r -t 0.53224 -s 4 -d 0 -p ack -e 40 -c 0 -i 4 -a 0 -x {4.0 1.0 1 ------- null}
+ -t 0.53224 -s 0 -d 1 -p ack -e 40 -c 0 -i 4 -a 0 -x {4.0 1.0 1 ------- null}
- -t 0.53224 -s 0 -d 1 -p ack -e 40 -c 0 -i 4 -a 0 -x {4.0 1.0 1 ------- null}
h -t 0.53224 -s 0 -d 1 -p ack -e 40 -c 0 -i 4 -a 0 -x {4.0 1.0 -1 ------- null}
r -t 0.53456 -s 0 -d 1 -p ack -e 40 -c 0 -i 4 -a 0 -x {4.0 1.0 1 ------- null}
+ -t 0.53456 -s 1 -d 0 -p tcp -e 1040 -c 0 -i 5 -a 0 -x {1.0 4.0 3 ------- null}
- -t 0.53456 -s 1 -d 0 -p tcp -e 1040 -c 0 -i 5 -a 0 -x {1.0 4.0 3 ------- null}
h -t 0.53456 -s 1 -d 0 -p tcp -e 1040 -c 0 -i 5 -a 0 -x {1.0 4.0 -1 ------- null}
+ -t 0.53456 -s 1 -d 0 -p tcp -e 1040 -c 0 -i 6 -a 0 -x {1.0 4.0 4 ------- null}
r -t 0.53824 -s 0 -d 4 -p tcp -e 1040 -c 0 -i 3 -a 0 -x {1.0 4.0 2 ------- null}
+ -t 0.53824 -s 4 -d 0 -p ack -e 40 -c 0 -i 7 -a 0 -x {4.0 1.0 2 ------- null}
- -t 0.53824 -s 4 -d 0 -p ack -e 40 -c 0 -i 7 -a 0 -x {4.0 1.0 2 ------- null}
h -t 0.53824 -s 4 -d 0 -p ack -e 40 -c 0 -i 7 -a 0 -x {4.0 1.0 -1 ------- null}
r -t 0.54056 -s 4 -d 0 -p ack -e 40 -c 0 -i 7 -a 0 -x {4.0 1.0 2 ------- null}
+ -t 0.54056 -s 0 -d 1 -p ack -e 40 -c 0 -i 7 -a 0 -x {4.0 1.0 2 ------- null}
- -t 0.54056 -s 0 -d 1 -p ack -e 40 -c 0 -i 7 -a 0 -x {4.0 1.0 2 ------- null}
h -t 0.54056 -s 0 -d 1 -p ack -e 40 -c 0 -i 7 -a 0 -x {4.0 1.0 -1 ------- null}
- -t 0.54288 -s 1 -d 0 -p tcp -e 1040 -c 0 -i 6 -a 0 -x {1.0 4.0 4 ------- null}
h -t 0.54288 -s 1 -d 0 -p tcp -e 1040 -c 0 -i 6 -a 0 -x {1.0 4.0 -1 ------- null}
r -t 0.54288 -s 0 -d 1 -p ack -e 40 -c 0 -i 7 -a 0 -x {4.0 1.0 2 ------- null}
+ -t 0.54288 -s 1 -d 0 -p tcp -e 1040 -c 0 -i 8 -a 0 -x {1.0 4.0 5 ------- null}
+ -t 0.54288 -s 1 -d 0 -p tcp -e 1040 -c 0 -i 9 -a 0 -x {1.0 4.0 6 ------- null}
r -t 0.54488 -s 1 -d 0 -p tcp -e 1040 -c 0 -i 5 -a 0 -x {1.0 4.0 3 ------- null}
+ -t 0.54488 -s 0 -d 4 -p tcp -e 1040 -c 0 -i 5 -a 0 -x {1.0 4.0 3 ------- null}
- -t 0.54488 -s 0 -d 4 -p tcp -e 1040 -c 0 -i 5 -a 0 -x {1.0 4.0 3 ------- null}
h -t 0.54488 -s 0 -d 4 -p tcp -e 1040 -c 0 -i 5 -a 0 -x {1.0 4.0 -1 ------- null}
- -t 0.5512 -s 1 -d 0 -p tcp -e 1040 -c 0 -i 8 -a 0 -x {1.0 4.0 5 ------- null}
h -t 0.5512 -s 1 -d 0 -p tcp -e 1040 -c 0 -i 8 -a 0 -x {1.0 4.0 -1 ------- null}
r -t 0.5532 -s 1 -d 0 -p tcp -e 1040 -c 0 -i 6 -a 0 -x {1.0 4.0 4 ------- null}
+ -t 0.5532 -s 0 -d 4 -p tcp -e 1040 -c 0 -i 6 -a 0 -x {1.0 4.0 4 ------- null}
- -t 0.5532 -s 0 -d 4 -p tcp -e 1040 -c 0 -i 6 -a 0 -x {1.0 4.0 4 ------- null}
h -t 0.5532 -s 0 -d 4 -p tcp -e 1040 -c 0 -i 6 -a 0 -x {1.0 4.0 -1 ------- null}
r -t 0.5552 -s 0 -d 4 -p tcp -e 1040 -c 0 -i 5 -a 0 -x {1.0 4.0 3 ------- null}
+ -t 0.5552 -s 4 -d 0 -p ack -e 40 -c 0 -i 10 -a 0 -x {4.0 1.0 3 ------- null}
- -t 0.5552 -s 4 -d 0 -p ack -e 40 -c 0 -i 10 -a 0 -x {4.0 1.0 3 ------- null}
h -t 0.5552 -s 4 -d 0 -p ack -e 40 -c 0 -i 10 -a 0 -x {4.0 1.0 -1 ------- null}
r -t 0.55752 -s 4 -d 0 -p ack -e 40 -c 0 -i 10 -a 0 -x {4.0 1.0 3 ------- null}
+ -t 0.55752 -s 0 -d 1 -p ack -e 40 -c 0 -i 10 -a 0 -x {4.0 1.0 3 ------- null}
- -t 0.55752 -s 0 -d 1 -p ack -e 40 -c 0 -i 10 -a 0 -x {4.0 1.0 3 ------- null}
h -t 0.55752 -s 0 -d 1 -p ack -e 40 -c 0 -i 10 -a 0 -x {4.0 1.0 -1 ------- null}
- -t 0.55952 -s 1 -d 0 -p tcp -e 1040 -c 0 -i 9 -a 0 -x {1.0 4.0 6 ------- null}
h -t 0.55952 -s 1 -d 0 -p tcp -e 1040 -c 0 -i 9 -a 0 -x {1.0 4.0 -1 ------- null}
r -t 0.55984 -s 0 -d 1 -p ack -e 40 -c 0 -i 10 -a 0 -x {4.0 1.0 3 ------- null}
+ -t 0.55984 -s 1 -d 0 -p tcp -e 1040 -c 0 -i 11 -a 0 -x {1.0 4.0 7 ------- null}
+ -t 0.55984 -s 1 -d 0 -p tcp -e 1040 -c 0 -i 12 -a 0 -x {1.0 4.0 8 ------- null}
r -t 0.56152 -s 1 -d 0 -p tcp -e 1040 -c 0 -i 8 -a 0 -x {1.0 4.0 5 ------- null}
+ -t 0.56152 -s 0 -d 4 -p tcp -e 1040 -c 0 -i 8 -a 0 -x {1.0 4.0 5 ------- null}
- -t 0.56152 -s 0 -d 4 -p tcp -e 1040 -c 0 -i 8 -a 0 -x {1.0 4.0 5 ------- null}
h -t 0.56152 -s 0 -d 4 -p tcp -e 1040 -c 0 -i 8 -a 0 -x {1.0 4.0 -1 ------- null}
r -t 0.56352 -s 0 -d 4 -p tcp -e 1040 -c 0 -i 6 -a 0 -x {1.0 4.0 4 ------- null}
+ -t 0.56352 -s 4 -d 0 -p ack -e 40 -c 0 -i 13 -a 0 -x {4.0 1.0 4 ------- null}
- -t 0.56352 -s 4 -d 0 -p ack -e 40 -c 0 -i 13 -a 0 -x {4.0 1.0 4 ------- null}
h -t 0.56352 -s 4 -d 0 -p ack -e 40 -c 0 -i 13 -a 0 -x {4.0 1.0 -1 ------- null}
r -t 0.56584 -s 4 -d 0 -p ack -e 40 -c 0 -i 13 -a 0 -x {4.0 1.0 4 ------- null}
+ -t 0.56584 -s 0 -d 1 -p ack -e 40 -c 0 -i 13 -a 0 -x {4.0 1.0 4 ------- null}
- -t 0.56584 -s 0 -d 1 -p ack -e 40 -c 0 -i 13 -a 0 -x {4.0 1.0 4 ------- null}
h -t 0.56584 -s 0 -d 1 -p ack -e 40 -c 0 -i 13 -a 0 -x {4.0 1.0 -1 ------- null}
- -t 0.56784 -s 1 -d 0 -p tcp -e 1040 -c 0 -i 11 -a 0 -x {1.0 4.0 7 ------- null}
h -t 0.56784 -s 1 -d 0 -p tcp -e 1040 -c 0 -i 11 -a 0 -x {1.0 4.0 -1 ------- null}
r -t 0.56816 -s 0 -d 1 -p ack -e 40 -c 0 -i 13 -a 0 -x {4.0 1.0 4 ------- null}
+ -t 0.56816 -s 1 -d 0 -p tcp -e 1040 -c 0 -i 14 -a 0 -x {1.0 4.0 9 ------- null}
+ -t 0.56816 -s 1 -d 0 -p tcp -e 1040 -c 0 -i 15 -a 0 -x {1.0 4.0 10 ------- null}
r -t 0.56984 -s 1 -d 0 -p tcp -e 1040 -c 0 -i 9 -a 0 -x {1.0 4.0 6 ------- null}
+ -t 0.56984 -s 0 -d 4 -p tcp -e 1040 -c 0 -i 9 -a 0 -x {1.0 4.0 6 ------- null}
- -t 0.56984 -s 0 -d 4 -p tcp -e 1040 -c 0 -i 9 -a 0 -x {1.0 4.0 6 ------- null}
h -t 0.56984 -s 0 -d 4 -p tcp -e 1040 -c 0 -i 9 -a 0 -x {1.0 4.0 -1 ------- null}
r -t 0.57184 -s 0 -d 4 -p tcp -e 1040 -c 0 -i 8 -a 0 -x {1.0 4.0 5 ------- null}
+ -t 0.57184 -s 4 -d 0 -p ack -e 40 -c 0 -i 16 -a 0 -x {4.0 1.0 5 ------- null}
- -t 0.57184 -s 4 -d 0 -p ack -e 40 -c 0 -i 16 -a 0 -x {4.0 1.0 5 ------- null}
h -t 0.57184 -s 4 -d 0 -p ack -e 40 -c 0 -i 16 -a 0 -x {4.0 1.0 -1 ------- null}
r -t 0.57416 -s 4 -d 0 -p ack -e 40 -c 0 -i 16 -a 0 -x {4.0 1.0 5 ------- null}
+ -t 0.57416 -s 0 -d 1 -p ack -e 40 -c 0 -i 16 -a 0 -x {4.0 1.0 5 ------- null}
- -t 0.57416 -s 0 -d 1 -p ack -e 40 -c 0 -i 16 -a 0 -x {4.0 1.0 5 ------- null}
h -t 0.57416 -s 0 -d 1 -p ack -e 40 -c 0 -i 16 -a 0 -x {4.0 1.0 -1 ------- null}
- -t 0.57616 -s 1 -d 0 -p tcp -e 1040 -c 0 -i 12 -a 0 -x {1.0 4.0 8 ------- null}
h -t 0.57616 -s 1 -d 0 -p tcp -e 1040 -c 0 -i 12 -a 0 -x {1.0 4.0 -1 ------- null}
r -t 0.57648 -s 0 -d 1 -p ack -e 40 -c 0 -i 16 -a 0 -x {4.0 1.0 5 ------- null}
+ -t 0.57648 -s 1 -d 0 -p tcp -e 1040 -c 0 -i 17 -a 0 -x {1.0 4.0 11 ------- null}
+ -t 0.57648 -s 1 -d 0 -p tcp -e 1040 -c 0 -i 18 -a 0 -x {1.0 4.0 12 ------- null}
r -t 0.57816 -s 1 -d 0 -p tcp -e 1040 -c 0 -i 11 -a 0 -x {1.0 4.0 7 ------- null}
+ -t 0.57816 -s 0 -d 4 -p tcp -e 1040 -c 0 -i 11 -a 0 -x {1.0 4.0 7 ------- null}
- -t 0.57816 -s 0 -d 4 -p tcp -e 1040 -c 0 -i 11 -a 0 -x {1.0 4.0 7 ------- null}
h -t 0.57816 -s 0 -d 4 -p tcp -e 1040 -c 0 -i 11 -a 0 -x {1.0 4.0 -1 ------- null}
r -t 0.58016 -s 0 -d 4 -p tcp -e 1040 -c 0 -i 9 -a 0 -x {1.0 4.0 6 ------- null}
+ -t 0.58016 -s 4 -d 0 -p ack -e 40 -c 0 -i 19 -a 0 -x {4.0 1.0 6 ------- null}
- -t 0.58016 -s 4 -d 0 -p ack -e 40 -c 0 -i 19 -a 0 -x {4.0 1.0 6 ------- null}
h -t 0.58016 -s 4 -d 0 -p ack -e 40 -c 0 -i 19 -a 0 -x {4.0 1.0 -1 ------- null}
r -t 0.58248 -s 4 -d 0 -p ack -e 40 -c 0 -i 19 -a 0 -x {4.0 1.0 6 ------- null}
+ -t 0.58248 -s 0 -d 1 -p ack -e 40 -c 0 -i 19 -a 0 -x {4.0 1.0 6 ------- null}
- -t 0.58248 -s 0 -d 1 -p ack -e 40 -c 0 -i 19 -a 0 -x {4.0 1.0 6 ------- null}
h -t 0.58248 -s 0 -d 1 -p ack -e 40 -c 0 -i 19 -a 0 -x {4.0 1.0 -1 ------- null}
- -t 0.58448 -s 1 -d 0 -p tcp -e 1040 -c 0 -i 14 -a 0 -x {1.0 4.0 9 ------- null}
h -t 0.58448 -s 1 -d 0 -p tcp -e 1040 -c 0 -i 14 -a 0 -x {1.0 4.0 -1 ------- null}
r -t 0.5848 -s 0 -d 1 -p ack -e 40 -c 0 -i 19 -a 0 -x {4.0 1.0 6 ------- null}
+ -t 0.5848 -s 1 -d 0 -p tcp -e 1040 -c 0 -i 20 -a 0 -x {1.0 4.0 13 ------- null}
+ -t 0.5848 -s 1 -d 0 -p tcp -e 1040 -c 0 -i 21 -a 0 -x {1.0 4.0 14 ------- null}
r -t 0.58648 -s 1 -d 0 -p tcp -e 1040 -c 0 -i 12 -a 0 -x {1.0 4.0 8 ------- null}
+ -t 0.58648 -s 0 -d 4 -p tcp -e 1040 -c 0 -i 12 -a 0 -x {1.0 4.0 8 ------- null}
- -t 0.58648 -s 0 -d 4 -p tcp -e 1040 -c 0 -i 12 -a 0 -x {1.0 4.0 8 ------- null}
h -t 0.58648 -s 0 -d 4 -p tcp -e 1040 -c 0 -i 12 -a 0 -x {1.0 4.0 -1 ------- null}
r -t 0.58848 -s 0 -d 4 -p tcp -e 1040 -c 0 -i 11 -a 0 -x {1.0 4.0 7 ------- null}
+ -t 0.58848 -s 4 -d 0 -p ack -e 40 -c 0 -i 22 -a 0 -x {4.0 1.0 7 ------- null}
- -t 0.58848 -s 4 -d 0 -p ack -e 40 -c 0 -i 22 -a 0 -x {4.0 1.0 7 ------- null}
h -t 0.58848 -s 4 -d 0 -p ack -e 40 -c 0 -i 22 -a 0 -x {4.0 1.0 -1 ------- null}
r -t 0.5908 -s 4 -d 0 -p ack -e 40 -c 0 -i 22 -a 0 -x {4.0 1.0 7 ------- null}
+ -t 0.5908 -s 0 -d 1 -p ack -e 40 -c 0 -i 22 -a 0 -x {4.0 1.0 7 ------- null}
- -t 0.5908 -s 0 -d 1 -p ack -e 40 -c 0 -i 22 -a 0 -x {4.0 1.0 7 ------- null}
h -t 0.5908 -s 0 -d 1 -p ack -e 40 -c 0 -i 22 -a 0 -x {4.0 1.0 -1 ------- null}
- -t 0.5928 -s 1 -d 0 -p tcp -e 1040 -c 0 -i 15 -a 0 -x {1.0 4.0 10 ------- null}
h -t 0.5928 -s 1 -d 0 -p tcp -e 1040 -c 0 -i 15 -a 0 -x {1.0 4.0 -1 ------- null}
r -t 0.59312 -s 0 -d 1 -p ack -e 40 -c 0 -i 22 -a 0 -x {4.0 1.0 7 ------- null}
+ -t 0.59312 -s 1 -d 0 -p tcp -e 1040 -c 0 -i 23 -a 0 -x {1.0 4.0 15 ------- null}
+ -t 0.59312 -s 1 -d 0 -p tcp -e 1040 -c 0 -i 24 -a 0 -x {1.0 4.0 16 ------- null}
r -t 0.5948 -s 1 -d 0 -p tcp -e 1040 -c 0 -i 14 -a 0 -x {1.0 4.0 9 ------- null}
+ -t 0.5948 -s 0 -d 4 -p tcp -e 1040 -c 0 -i 14 -a 0 -x {1.0 4.0 9 ------- null}
- -t 0.5948 -s 0 -d 4 -p tcp -e 1040 -c 0 -i 14 -a 0 -x {1.0 4.0 9 ------- null}
h -t 0.5948 -s 0 -d 4 -p tcp -e 1040 -c 0 -i 14 -a 0 -x {1.0 4.0 -1 ------- null}
r -t 0.5968 -s 0 -d 4 -p tcp -e 1040 -c 0 -i 12 -a 0 -x {1.0 4.0 8 ------- null}
+ -t 0.5968 -s 4 -d 0 -p ack -e 40 -c 0 -i 25 -a 0 -x {4.0 1.0 8 ------- null}
- -t 0.5968 -s 4 -d 0 -p ack -e 40 -c 0 -i 25 -a 0 -x {4.0 1.0 8 ------- null}
h -t 0.5968 -s 4 -d 0 -p ack -e 40 -c 0 -i 25 -a 0 -x {4.0 1.0 -1 ------- null}
r -t 0.59912 -s 4 -d 0 -p ack -e 40 -c 0 -i 25 -a 0 -x {4.0 1.0 8 ------- null}
+ -t 0.59912 -s 0 -d 1 -p ack -e 40 -c 0 -i 25 -a 0 -x {4.0 1.0 8 ------- null}
- -t 0.59912 -s 0 -d 1 -p ack -e 40 -c 0 -i 25 -a 0 -x {4.0 1.0 8 ------- null}
h -t 0.59912 -s 0 -d 1 -p ack -e 40 -c 0 -i 25 -a 0 -x {4.0 1.0 -1 ------- null}
- -t 0.60112 -s 1 -d 0 -p tcp -e 1040 -c 0 -i 17 -a 0 -x {1.0 4.0 11 ------- null}
h -t 0.60112 -s 1 -d 0 -p tcp -e 1040 -c 0 -i 17 -a 0 -x {1.0 4.0 -1 ------- null}
r -t 0.60144 -s 0 -d 1 -p ack -e 40 -c 0 -i 25 -a 0 -x {4.0 1.0 8 ------- null}
+ -t 0.60144 -s 1 -d 0 -p tcp -e 1040 -c 0 -i 26 -a 0 -x {1.0 4.0 17 ------- null}
+ -t 0.60144 -s 1 -d 0 -p tcp -e 1040 -c 0 -i 27 -a 0 -x {1.0 4.0 18 ------- null}
r -t 0.60312 -s 1 -d 0 -p tcp -e 1040 -c 0 -i 15 -a 0 -x {1.0 4.0 10 ------- null}
+ -t 0.60312 -s 0 -d 4 -p tcp -e 1040 -c 0 -i 15 -a 0 -x {1.0 4.0 10 ------- null}
- -t 0.60312 -s 0 -d 4 -p tcp -e 1040 -c 0 -i 15 -a 0 -x {1.0 4.0 10 ------- null}
h -t 0.60312 -s 0 -d 4 -p tcp -e 1040 -c 0 -i 15 -a 0 -x {1.0 4.0 -1 ------- null}
r -t 0.60512 -s 0 -d 4 -p tcp -e 1040 -c 0 -i 14 -a 0 -x {1.0 4.0 9 ------- null}
+ -t 0.60512 -s 4 -d 0 -p ack -e 40 -c 0 -i 28 -a 0 -x {4.0 1.0 9 ------- null}
- -t 0.60512 -s 4 -d 0 -p ack -e 40 -c 0 -i 28 -a 0 -x {4.0 1.0 9 ------- null}
h -t 0.60512 -s 4 -d 0 -p ack -e 40 -c 0 -i 28 -a 0 -x {4.0 1.0 -1 ------- null}
r -t 0.60744 -s 4 -d 0 -p ack -e 40 -c 0 -i 28 -a 0 -x {4.0 1.0 9 ------- null}
+ -t 0.60744 -s 0 -d 1 -p ack -e 40 -c 0 -i 28 -a 0 -x {4.0 1.0 9 ------- null}
- -t 0.60744 -s 0 -d 1 -p ack -e 40 -c 0 -i 28 -a 0 -x {4.0 1.0 9 ------- null}
h -t 0.60744 -s 0 -d 1 -p ack -e 40 -c 0 -i 28 -a 0 -x {4.0 1.0 -1 ------- null}
- -t 0.60944 -s 1 -d 0 -p tcp -e 1040 -c 0 -i 18 -a 0 -x {1.0 4.0 12 ------- null}
h -t 0.60944 -s 1 -d 0 -p tcp -e 1040 -c 0 -i 18 -a 0 -x {1.0 4.0 -1 ------- null}
r -t 0.60976 -s 0 -d 1 -p ack -e 40 -c 0 -i 28 -a 0 -x {4.0 1.0 9 ------- null}
+ -t 0.60976 -s 1 -d 0 -p tcp -e 1040 -c 0 -i 29 -a 0 -x {1.0 4.0 19 ------- null}
+ -t 0.60976 -s 1 -d 0 -p tcp -e 1040 -c 0 -i 30 -a 0 -x {1.0 4.0 20 ------- null}
r -t 0.61144 -s 1 -d 0 -p tcp -e 1040 -c 0 -i 17 -a 0 -x {1.0 4.0 11 ------- null}
+ -t 0.61144 -s 0 -d 4 -p tcp -e 1040 -c 0 -i 17 -a 0 -x {1.0 4.0 11 ------- null}
- -t 0.61144 -s 0 -d 4 -p tcp -e 1040 -c 0 -i 17 -a 0 -x {1.0 4.0 11 ------- null}
h -t 0.61144 -s 0 -d 4 -p tcp -e 1040 -c 0 -i 17 -a 0 -x {1.0 4.0 -1 ------- null}
r -t 0.61344 -s 0 -d 4 -p tcp -e 1040 -c 0 -i 15 -a 0 -x {1.0 4.0 10 ------- null}
+ -t 0.61344 -s 4 -d 0 -p ack -e 40 -c 0 -i 31 -a 0 -x {4.0 1.0 10 ------- null}
- -t 0.61344 -s 4 -d 0 -p ack -e 40 -c 0 -i 31 -a 0 -x {4.0 1.0 10 ------- null}
h -t 0.61344 -s 4 -d 0 -p ack -e 40 -c 0 -i 31 -a 0 -x {4.0 1.0 -1 ------- null}
r -t 0.61576 -s 4 -d 0 -p ack -e 40 -c 0 -i 31 -a 0 -x {4.0 1.0 10 ------- null}
+ -t 0.61576 -s 0 -d 1 -p ack -e 40 -c 0 -i 31 -a 0 -x {4.0 1.0 10 ------- null}
- -t 0.61576 -s 0 -d 1 -p ack -e 40 -c 0 -i 31 -a 0 -x {4.0 1.0 10 ------- null}
h -t 0.61576 -s 0 -d 1 -p ack -e 40 -c 0 -i 31 -a 0 -x {4.0 1.0 -1 ------- null}
- -t 0.61776 -s 1 -d 0 -p tcp -e 1040 -c 0 -i 20 -a 0 -x {1.0 4.0 13 ------- null}
h -t 0.61776 -s 1 -d 0 -p tcp -e 1040 -c 0 -i 20 -a 0 -x {1.0 4.0 -1 ------- null}
r -t 0.61808 -s 0 -d 1 -p ack -e 40 -c 0 -i 31 -a 0 -x {4.0 1.0 10 ------- null}
+ -t 0.61808 -s 1 -d 0 -p tcp -e 1040 -c 0 -i 32 -a 0 -x {1.0 4.0 21 ------- null}
+ -t 0.61808 -s 1 -d 0 -p tcp -e 1040 -c 0 -i 33 -a 0 -x {1.0 4.0 22 ------- null}
r -t 0.61976 -s 1 -d 0 -p tcp -e 1040 -c 0 -i 18 -a 0 -x {1.0 4.0 12 ------- null}
+ -t 0.61976 -s 0 -d 4 -p tcp -e 1040 -c 0 -i 18 -a 0 -x {1.0 4.0 12 ------- null}
- -t 0.61976 -s 0 -d 4 -p tcp -e 1040 -c 0 -i 18 -a 0 -x {1.0 4.0 12 ------- null}
h -t 0.61976 -s 0 -d 4 -p tcp -e 1040 -c 0 -i 18 -a 0 -x {1.0 4.0 -1 ------- null}
r -t 0.62176 -s 0 -d 4 -p tcp -e 1040 -c 0 -i 17 -a 0 -x {1.0 4.0 11 ------- null}
+ -t 0.62176 -s 4 -d 0 -p ack -e 40 -c 0 -i 34 -a 0 -x {4.0 1.0 11 ------- null}
- -t 0.62176 -s 4 -d 0 -p ack -e 40 -c 0 -i 34 -a 0 -x {4.0 1.0 11 ------- null}
h -t 0.62176 -s 4 -d 0 -p ack -e 40 -c 0 -i 34 -a 0 -x {4.0 1.0 -1 ------- null}
r -t 0.62408 -s 4 -d 0 -p ack -e 40 -c 0 -i 34 -a 0 -x {4.0 1.0 11 ------- null}
+ -t 0.62408 -s 0 -d 1 -p ack -e 40 -c 0 -i 34 -a 0 -x {4.0 1.0 11 ------- null}
- -t 0.62408 -s 0 -d 1 -p ack -e 40 -c 0 -i 34 -a 0 -x {4.0 1.0 11 ------- null}
h -t 0.62408 -s 0 -d 1 -p ack -e 40 -c 0 -i 34 -a 0 -x {4.0 1.0 -1 ------- null}
- -t 0.62608 -s 1 -d 0 -p tcp -e 1040 -c 0 -i 21 -a 0 -x {1.0 4.0 14 ------- null}
h -t 0.62608 -s 1 -d 0 -p tcp -e 1040 -c 0 -i 21 -a 0 -x {1.0 4.0 -1 ------- null}
r -t 0.6264 -s 0 -d 1 -p ack -e 40 -c 0 -i 34 -a 0 -x {4.0 1.0 11 ------- null}
+ -t 0.6264 -s 1 -d 0 -p tcp -e 1040 -c 0 -i 35 -a 0 -x {1.0 4.0 23 ------- null}
+ -t 0.6264 -s 1 -d 0 -p tcp -e 1040 -c 0 -i 36 -a 0 -x {1.0 4.0 24 ------- null}
r -t 0.62808 -s 1 -d 0 -p tcp -e 1040 -c 0 -i 20 -a 0 -x {1.0 4.0 13 ------- null}
+ -t 0.62808 -s 0 -d 4 -p tcp -e 1040 -c 0 -i 20 -a 0 -x {1.0 4.0 13 ------- null}
- -t 0.62808 -s 0 -d 4 -p tcp -e 1040 -c 0 -i 20 -a 0 -x {1.0 4.0 13 ------- null}
h -t 0.62808 -s 0 -d 4 -p tcp -e 1040 -c 0 -i 20 -a 0 -x {1.0 4.0 -1 ------- null}
r -t 0.63008 -s 0 -d 4 -p tcp -e 1040 -c 0 -i 18 -a 0 -x {1.0 4.0 12 ------- null}
+ -t 0.63008 -s 4 -d 0 -p ack -e 40 -c 0 -i 37 -a 0 -x {4.0 1.0 12 ------- null}
- -t 0.63008 -s 4 -d 0 -p ack -e 40 -c 0 -i 37 -a 0 -x {4.0 1.0 12 ------- null}
h -t 0.63008 -s 4 -d 0 -p ack -e 40 -c 0 -i 37 -a 0 -x {4.0 1.0 -1 ------- null}
r -t 0.6324 -s 4 -d 0 -p ack -e 40 -c 0 -i 37 -a 0 -x {4.0 1.0 12 ------- null}
+ -t 0.6324 -s 0 -d 1 -p ack -e 40 -c 0 -i 37 -a 0 -x {4.0 1.0 12 ------- null}
- -t 0.6324 -s 0 -d 1 -p ack -e 40 -c 0 -i 37 -a 0 -x {4.0 1.0 12 ------- null}
h -t 0.6324 -s 0 -d 1 -p ack -e 40 -c 0 -i 37 -a 0 -x {4.0 1.0 -1 ------- null}
- -t 0.6344 -s 1 -d 0 -p tcp -e 1040 -c 0 -i 23 -a 0 -x {1.0 4.0 15 ------- null}
h -t 0.6344 -s 1 -d 0 -p tcp -e 1040 -c 0 -i 23 -a 0 -x {1.0 4.0 -1 ------- null}
r -t 0.63472 -s 0 -d 1 -p ack -e 40 -c 0 -i 37 -a 0 -x {4.0 1.0 12 ------- null}
+ -t 0.63472 -s 1 -d 0 -p tcp -e 1040 -c 0 -i 38 -a 0 -x {1.0 4.0 25 ------- null}
+ -t 0.63472 -s 1 -d 0 -p tcp -e 1040 -c 0 -i 39 -a 0 -x {1.0 4.0 26 ------- null}
r -t 0.6364 -s 1 -d 0 -p tcp -e 1040 -c 0 -i 21 -a 0 -x {1.0 4.0 14 ------- null}
+ -t 0.6364 -s 0 -d 4 -p tcp -e 1040 -c 0 -i 21 -a 0 -x {1.0 4.0 14 ------- null}
- -t 0.6364 -s 0 -d 4 -p tcp -e 1040 -c 0 -i 21 -a 0 -x {1.0 4.0 14 ------- null}
h -t 0.6364 -s 0 -d 4 -p tcp -e 1040 -c 0 -i 21 -a 0 -x {1.0 4.0 -1 ------- null}
r -t 0.6384 -s 0 -d 4 -p tcp -e 1040 -c 0 -i 20 -a 0 -x {1.0 4.0 13 ------- null}
+ -t 0.6384 -s 4 -d 0 -p ack -e 40 -c 0 -i 40 -a 0 -x {4.0 1.0 13 ------- null}
- -t 0.6384 -s 4 -d 0 -p ack -e 40 -c 0 -i 40 -a 0 -x {4.0 1.0 13 ------- null}
h -t 0.6384 -s 4 -d 0 -p ack -e 40 -c 0 -i 40 -a 0 -x {4.0 1.0 -1 ------- null}
r -t 0.64072 -s 4 -d 0 -p ack -e 40 -c 0 -i 40 -a 0 -x {4.0 1.0 13 ------- null}
+ -t 0.64072 -s 0 -d 1 -p ack -e 40 -c 0 -i 40 -a 0 -x {4.0 1.0 13 ------- null}
- -t 0.64072 -s 0 -d 1 -p ack -e 40 -c 0 -i 40 -a 0 -x {4.0 1.0 13 ------- null}
h -t 0.64072 -s 0 -d 1 -p ack -e 40 -c 0 -i 40 -a 0 -x {4.0 1.0 -1 ------- null}
- -t 0.64272 -s 1 -d 0 -p tcp -e 1040 -c 0 -i 24 -a 0 -x {1.0 4.0 16 ------- null}
h -t 0.64272 -s 1 -d 0 -p tcp -e 1040 -c 0 -i 24 -a 0 -x {1.0 4.0 -1 ------- null}
r -t 0.64304 -s 0 -d 1 -p ack -e 40 -c 0 -i 40 -a 0 -x {4.0 1.0 13 ------- null}
+ -t 0.64304 -s 1 -d 0 -p tcp -e 1040 -c 0 -i 41 -a 0 -x {1.0 4.0 27 ------- null}
+ -t 0.64304 -s 1 -d 0 -p tcp -e 1040 -c 0 -i 42 -a 0 -x {1.0 4.0 28 ------- null}
r -t 0.64472 -s 1 -d 0 -p tcp -e 1040 -c 0 -i 23 -a 0 -x {1.0 4.0 15 ------- null}
+ -t 0.64472 -s 0 -d 4 -p tcp -e 1040 -c 0 -i 23 -a 0 -x {1.0 4.0 15 ------- null}
- -t 0.64472 -s 0 -d 4 -p tcp -e 1040 -c 0 -i 23 -a 0 -x {1.0 4.0 15 ------- null}
h -t 0.64472 -s 0 -d 4 -p tcp -e 1040 -c 0 -i 23 -a 0 -x {1.0 4.0 -1 ------- null}
r -t 0.64672 -s 0 -d 4 -p tcp -e 1040 -c 0 -i 21 -a 0 -x {1.0 4.0 14 ------- null}
+ -t 0.64672 -s 4 -d 0 -p ack -e 40 -c 0 -i 43 -a 0 -x {4.0 1.0 14 ------- null}
- -t 0.64672 -s 4 -d 0 -p ack -e 40 -c 0 -i 43 -a 0 -x {4.0 1.0 14 ------- null}
h -t 0.64672 -s 4 -d 0 -p ack -e 40 -c 0 -i 43 -a 0 -x {4.0 1.0 -1 ------- null}
r -t 0.64904 -s 4 -d 0 -p ack -e 40 -c 0 -i 43 -a 0 -x {4.0 1.0 14 ------- null}
+ -t 0.64904 -s 0 -d 1 -p ack -e 40 -c 0 -i 43 -a 0 -x {4.0 1.0 14 ------- null}
- -t 0.64904 -s 0 -d 1 -p ack -e 40 -c 0 -i 43 -a 0 -x {4.0 1.0 14 ------- null}
h -t 0.64904 -s 0 -d 1 -p ack -e 40 -c 0 -i 43 -a 0 -x {4.0 1.0 -1 ------- null}
- -t 0.65104 -s 1 -d 0 -p tcp -e 1040 -c 0 -i 26 -a 0 -x {1.0 4.0 17 ------- null}
h -t 0.65104 -s 1 -d 0 -p tcp -e 1040 -c 0 -i 26 -a 0 -x {1.0 4.0 -1 ------- null}
r -t 0.65136 -s 0 -d 1 -p ack -e 40 -c 0 -i 43 -a 0 -x {4.0 1.0 14 ------- null}
+ -t 0.65136 -s 1 -d 0 -p tcp -e 1040 -c 0 -i 44 -a 0 -x {1.0 4.0 29 ------- null}
+ -t 0.65136 -s 1 -d 0 -p tcp -e 1040 -c 0 -i 45 -a 0 -x {1.0 4.0 30 ------- null}
r -t 0.65304 -s 1 -d 0 -p tcp -e 1040 -c 0 -i 24 -a 0 -x {1.0 4.0 16 ------- null}
+ -t 0.65304 -s 0 -d 4 -p tcp -e 1040 -c 0 -i 24 -a 0 -x {1.0 4.0 16 ------- null}
- -t 0.65304 -s 0 -d 4 -p tcp -e 1040 -c 0 -i 24 -a 0 -x {1.0 4.0 16 ------- null}
h -t 0.65304 -s 0 -d 4 -p tcp -e 1040 -c 0 -i 24 -a 0 -x {1.0 4.0 -1 ------- null}
r -t 0.65504 -s 0 -d 4 -p tcp -e 1040 -c 0 -i 23 -a 0 -x {1.0 4.0 15 ------- null}
+ -t 0.65504 -s 4 -d 0 -p ack -e 40 -c 0 -i 46 -a 0 -x {4.0 1.0 15 ------- null}
- -t 0.65504 -s 4 -d 0 -p ack -e 40 -c 0 -i 46 -a 0 -x {4.0 1.0 15 ------- null}
h -t 0.65504 -s 4 -d 0 -p ack -e 40 -c 0 -i 46 -a 0 -x {4.0 1.0 -1 ------- null}
r -t 0.65736 -s 4 -d 0 -p ack -e 40 -c 0 -i 46 -a 0 -x {4.0 1.0 15 ------- null}
+ -t 0.65736 -s 0 -d 1 -p ack -e 40 -c 0 -i 46 -a 0 -x {4.0 1.0 15 ------- null}
- -t 0.65736 -s 0 -d 1 -p ack -e 40 -c 0 -i 46 -a 0 -x {4.0 1.0 15 ------- null}
h -t 0.65736 -s 0 -d 1 -p ack -e 40 -c 0 -i 46 -a 0 -x {4.0 1.0 -1 ------- null}
- -t 0.65936 -s 1 -d 0 -p tcp -e 1040 -c 0 -i 27 -a 0 -x {1.0 4.0 18 ------- null}
h -t 0.65936 -s 1 -d 0 -p tcp -e 1040 -c 0 -i 27 -a 0 -x {1.0 4.0 -1 ------- null}
r -t 0.65968 -s 0 -d 1 -p ack -e 40 -c 0 -i 46 -a 0 -x {4.0 1.0 15 ------- null}
+ -t 0.65968 -s 1 -d 0 -p tcp -e 1040 -c 0 -i 47 -a 0 -x {1.0 4.0 31 ------- null}
+ -t 0.65968 -s 1 -d 0 -p tcp -e 1040 -c 0 -i 48 -a 0 -x {1.0 4.0 32 ------- null}
r -t 0.66136 -s 1 -d 0 -p tcp -e 1040 -c 0 -i 26 -a 0 -x {1.0 4.0 17 ------- null}
+ -t 0.66136 -s 0 -d 4 -p tcp -e 1040 -c 0 -i 26 -a 0 -x {1.0 4.0 17 ------- null}
- -t 0.66136 -s 0 -d 4 -p tcp -e 1040 -c 0 -i 26 -a 0 -x {1.0 4.0 17 ------- null}
h -t 0.66136 -s 0 -d 4 -p tcp -e 1040 -c 0 -i 26 -a 0 -x {1.0 4.0 -1 ------- null}
r -t 0.66336 -s 0 -d 4 -p tcp -e 1040 -c 0 -i 24 -a 0 -x {1.0 4.0 16 ------- null}
+ -t 0.66336 -s 4 -d 0 -p ack -e 40 -c 0 -i 49 -a 0 -x {4.0 1.0 16 ------- null}
- -t 0.66336 -s 4 -d 0 -p ack -e 40 -c 0 -i 49 -a 0 -x {4.0 1.0 16 ------- null}
h -t 0.66336 -s 4 -d 0 -p ack -e 40 -c 0 -i 49 -a 0 -x {4.0 1.0 -1 ------- null}
r -t 0.66568 -s 4 -d 0 -p ack -e 40 -c 0 -i 49 -a 0 -x {4.0 1.0 16 ------- null}
+ -t 0.66568 -s 0 -d 1 -p ack -e 40 -c 0 -i 49 -a 0 -x {4.0 1.0 16 ------- null}
- -t 0.66568 -s 0 -d 1 -p ack -e 40 -c 0 -i 49 -a 0 -x {4.0 1.0 16 ------- null}
h -t 0.66568 -s 0 -d 1 -p ack -e 40 -c 0 -i 49 -a 0 -x {4.0 1.0 -1 ------- null}
- -t 0.66768 -s 1 -d 0 -p tcp -e 1040 -c 0 -i 29 -a 0 -x {1.0 4.0 19 ------- null}
h -t 0.66768 -s 1 -d 0 -p tcp -e 1040 -c 0 -i 29 -a 0 -x {1.0 4.0 -1 ------- null}
r -t 0.668 -s 0 -d 1 -p ack -e 40 -c 0 -i 49 -a 0 -x {4.0 1.0 16 ------- null}
+ -t 0.668 -s 1 -d 0 -p tcp -e 1040 -c 0 -i 50 -a 0 -x {1.0 4.0 33 ------- null}
+ -t 0.668 -s 1 -d 0 -p tcp -e 1040 -c 0 -i 51 -a 0 -x {1.0 4.0 34 ------- null}
r -t 0.66968 -s 1 -d 0 -p tcp -e 1040 -c 0 -i 27 -a 0 -x {1.0 4.0 18 ------- null}
+ -t 0.66968 -s 0 -d 4 -p tcp -e 1040 -c 0 -i 27 -a 0 -x {1.0 4.0 18 ------- null}
- -t 0.66968 -s 0 -d 4 -p tcp -e 1040 -c 0 -i 27 -a 0 -x {1.0 4.0 18 ------- null}
h -t 0.66968 -s 0 -d 4 -p tcp -e 1040 -c 0 -i 27 -a 0 -x {1.0 4.0 -1 ------- null}
r -t 0.67168 -s 0 -d 4 -p tcp -e 1040 -c 0 -i 26 -a 0 -x {1.0 4.0 17 ------- null}
+ -t 0.67168 -s 4 -d 0 -p ack -e 40 -c 0 -i 52 -a 0 -x {4.0 1.0 17 ------- null}
- -t 0.67168 -s 4 -d 0 -p ack -e 40 -c 0 -i 52 -a 0 -x {4.0 1.0 17 ------- null}
h -t 0.67168 -s 4 -d 0 -p ack -e 40 -c 0 -i 52 -a 0 -x {4.0 1.0 -1 ------- null}
r -t 0.674 -s 4 -d 0 -p ack -e 40 -c 0 -i 52 -a 0 -x {4.0 1.0 17 ------- null}
+ -t 0.674 -s 0 -d 1 -p ack -e 40 -c 0 -i 52 -a 0 -x {4.0 1.0 17 ------- null}
- -t 0.674 -s 0 -d 1 -p ack -e 40 -c 0 -i 52 -a 0 -x {4.0 1.0 17 ------- null}
h -t 0.674 -s 0 -d 1 -p ack -e 40 -c 0 -i 52 -a 0 -x {4.0 1.0 -1 ------- null}
- -t 0.676 -s 1 -d 0 -p tcp -e 1040 -c 0 -i 30 -a 0 -x {1.0 4.0 20 ------- null}
h -t 0.676 -s 1 -d 0 -p tcp -e 1040 -c 0 -i 30 -a 0 -x {1.0 4.0 -1 ------- null}
r -t 0.67632 -s 0 -d 1 -p ack -e 40 -c 0 -i 52 -a 0 -x {4.0 1.0 17 ------- null}
+ -t 0.67632 -s 1 -d 0 -p tcp -e 1040 -c 0 -i 53 -a 0 -x {1.0 4.0 35 ------- null}
+ -t 0.67632 -s 1 -d 0 -p tcp -e 1040 -c 0 -i 54 -a 0 -x {1.0 4.0 36 ------- null}
r -t 0.678 -s 1 -d 0 -p tcp -e 1040 -c 0 -i 29 -a 0 -x {1.0 4.0 19 ------- null}
+ -t 0.678 -s 0 -d 4 -p tcp -e 1040 -c 0 -i 29 -a 0 -x {1.0 4.0 19 ------- null}
- -t 0.678 -s 0 -d 4 -p tcp -e 1040 -c 0 -i 29 -a 0 -x {1.0 4.0 19 ------- null}
h -t 0.678 -s 0 -d 4 -p tcp -e 1040 -c 0 -i 29 -a 0 -x {1.0 4.0 -1 ------- null}
r -t 0.68 -s 0 -d 4 -p tcp -e 1040 -c 0 -i 27 -a 0 -x {1.0 4.0 18 ------- null}
+ -t 0.68 -s 4 -d 0 -p ack -e 40 -c 0 -i 55 -a 0 -x {4.0 1.0 18 ------- null}
- -t 0.68 -s 4 -d 0 -p ack -e 40 -c 0 -i 55 -a 0 -x {4.0 1.0 18 ------- null}
h -t 0.68 -s 4 -d 0 -p ack -e 40 -c 0 -i 55 -a 0 -x {4.0 1.0 -1 ------- null}
r -t 0.68232 -s 4 -d 0 -p ack -e 40 -c 0 -i 55 -a 0 -x {4.0 1.0 18 ------- null}
+ -t 0.68232 -s 0 -d 1 -p ack -e 40 -c 0 -i 55 -a 0 -x {4.0 1.0 18 ------- null}
- -t 0.68232 -s 0 -d 1 -p ack -e 40 -c 0 -i 55 -a 0 -x {4.0 1.0 18 ------- null}
h -t 0.68232 -s 0 -d 1 -p ack -e 40 -c 0 -i 55 -a 0 -x {4.0 1.0 -1 ------- null}
- -t 0.68432 -s 1 -d 0 -p tcp -e 1040 -c 0 -i 32 -a 0 -x {1.0 4.0 21 ------- null}
h -t 0.68432 -s 1 -d 0 -p tcp -e 1040 -c 0 -i 32 -a 0 -x {1.0 4.0 -1 ------- null}
r -t 0.68464 -s 0 -d 1 -p ack -e 40 -c 0 -i 55 -a 0 -x {4.0 1.0 18 ------- null}
+ -t 0.68464 -s 1 -d 0 -p tcp -e 1040 -c 0 -i 56 -a 0 -x {1.0 4.0 37 ------- null}
+ -t 0.68464 -s 1 -d 0 -p tcp -e 1040 -c 0 -i 57 -a 0 -x {1.0 4.0 38 ------- null}
r -t 0.68632 -s 1 -d 0 -p tcp -e 1040 -c 0 -i 30 -a 0 -x {1.0 4.0 20 ------- null}
+ -t 0.68632 -s 0 -d 4 -p tcp -e 1040 -c 0 -i 30 -a 0 -x {1.0 4.0 20 ------- null}
- -t 0.68632 -s 0 -d 4 -p tcp -e 1040 -c 0 -i 30 -a 0 -x {1.0 4.0 20 ------- null}
h -t 0.68632 -s 0 -d 4 -p tcp -e 1040 -c 0 -i 30 -a 0 -x {1.0 4.0 -1 ------- null}
r -t 0.68832 -s 0 -d 4 -p tcp -e 1040 -c 0 -i 29 -a 0 -x {1.0 4.0 19 ------- null}
+ -t 0.68832 -s 4 -d 0 -p ack -e 40 -c 0 -i 58 -a 0 -x {4.0 1.0 19 ------- null}
- -t 0.68832 -s 4 -d 0 -p ack -e 40 -c 0 -i 58 -a 0 -x {4.0 1.0 19 ------- null}
h -t 0.68832 -s 4 -d 0 -p ack -e 40 -c 0 -i 58 -a 0 -x {4.0 1.0 -1 ------- null}
r -t 0.69064 -s 4 -d 0 -p ack -e 40 -c 0 -i 58 -a 0 -x {4.0 1.0 19 ------- null}
+ -t 0.69064 -s 0 -d 1 -p ack -e 40 -c 0 -i 58 -a 0 -x {4.0 1.0 19 ------- null}
- -t 0.69064 -s 0 -d 1 -p ack -e 40 -c 0 -i 58 -a 0 -x {4.0 1.0 19 ------- null}
h -t 0.69064 -s 0 -d 1 -p ack -e 40 -c 0 -i 58 -a 0 -x {4.0 1.0 -1 ------- null}
- -t 0.69264 -s 1 -d 0 -p tcp -e 1040 -c 0 -i 33 -a 0 -x {1.0 4.0 22 ------- null}
h -t 0.69264 -s 1 -d 0 -p tcp -e 1040 -c 0 -i 33 -a 0 -x {1.0 4.0 -1 ------- null}
r -t 0.69296 -s 0 -d 1 -p ack -e 40 -c 0 -i 58 -a 0 -x {4.0 1.0 19 ------- null}
+ -t 0.69296 -s 1 -d 0 -p tcp -e 1040 -c 0 -i 59 -a 0 -x {1.0 4.0 39 ------- null}
r -t 0.69464 -s 1 -d 0 -p tcp -e 1040 -c 0 -i 32 -a 0 -x {1.0 4.0 21 ------- null}
+ -t 0.69464 -s 0 -d 4 -p tcp -e 1040 -c 0 -i 32 -a 0 -x {1.0 4.0 21 ------- null}
- -t 0.69464 -s 0 -d 4 -p tcp -e 1040 -c 0 -i 32 -a 0 -x {1.0 4.0 21 ------- null}
h -t 0.69464 -s 0 -d 4 -p tcp -e 1040 -c 0 -i 32 -a 0 -x {1.0 4.0 -1 ------- null}
r -t 0.69664 -s 0 -d 4 -p tcp -e 1040 -c 0 -i 30 -a 0 -x {1.0 4.0 20 ------- null}
+ -t 0.69664 -s 4 -d 0 -p ack -e 40 -c 0 -i 60 -a 0 -x {4.0 1.0 20 ------- null}
- -t 0.69664 -s 4 -d 0 -p ack -e 40 -c 0 -i 60 -a 0 -x {4.0 1.0 20 ------- null}
h -t 0.69664 -s 4 -d 0 -p ack -e 40 -c 0 -i 60 -a 0 -x {4.0 1.0 -1 ------- null}