+ 0.5 0 1 cbr 210 ------- 0 0.0 1.0 0 0
- 0.5 0 1 cbr 210 ------- 0 0.0 1.0 0 0
+ 0.5 3 0 cbr 210 ------- 0 3.0 0.1 0 1
- 0.5 3 0 cbr 210 ------- 0 3.0 0.1 0 1
+ 0.5 1 2 tcp 40 ------- 0 1.1 2.1 0 2
- 0.5 1 2 tcp 40 ------- 0 1.1 2.1 0 2
+ 0.5 2 3 tcp 40 ------- 0 2.0 3.1 0 3
- 0.5 2 3 tcp 40 ------- 0 2.0 3.1 0 3
+ 0.50375 0 1 cbr 210 ------- 0 0.0 1.0 1 4
- 0.50375 0 1 cbr 210 ------- 0 0.0 1.0 1 4
+ 0.50375 3 0 cbr 210 ------- 0 3.0 0.1 1 5
- 0.50375 3 0 cbr 210 ------- 0 3.0 0.1 1 5
+ 0.5075 0 1 cbr 210 ------- 0 0.0 1.0 2 6
- 0.5075 0 1 cbr 210 ------- 0 0.0 1.0 2 6
+ 0.5075 3 0 cbr 210 ------- 0 3.0 0.1 2 7
- 0.5075 3 0 cbr 210 ------- 0 3.0 0.1 2 7
+ 0.51125 0 1 cbr 210 ------- 0 0.0 1.0 3 8
- 0.51125 0 1 cbr 210 ------- 0 0.0 1.0 3 8
+ 0.51125 3 0 cbr 210 ------- 0 3.0 0.1 3 9
- 0.51125 3 0 cbr 210 ------- 0 3.0 0.1 3 9
+ 0.515 0 1 cbr 210 ------- 0 0.0 1.0 4 10
- 0.515 0 1 cbr 210 ------- 0 0.0 1.0 4 10
+ 0.515 3 0 cbr 210 ------- 0 3.0 0.1 4 11
- 0.515 3 0 cbr 210 ------- 0 3.0 0.1 4 11
r 0.515213 1 2 tcp 40 ------- 0 1.1 2.1 0 2
+ 0.515213 2 1 ack 40 ------- 0 2.1 1.1 0 12
- 0.515213 2 1 ack 40 ------- 0 2.1 1.1 0 12
r 0.515213 2 3 tcp 40 ------- 0 2.0 3.1 0 3
+ 0.515213 3 2 ack 40 ------- 0 3.1 2.0 0 13
- 0.515213 3 2 ack 40 ------- 0 3.1 2.0 0 13
r 0.51612 0 1 cbr 210 ------- 0 0.0 1.0 0 0
r 0.51612 3 0 cbr 210 ------- 0 3.0 0.1 0 1
+ 0.51875 0 1 cbr 210 ------- 0 0.0 1.0 5 14
- 0.51875 0 1 cbr 210 ------- 0 0.0 1.0 5 14
+ 0.51875 3 0 cbr 210 ------- 0 3.0 0.1 5 15
- 0.51875 3 0 cbr 210 ------- 0 3.0 0.1 5 15
r 0.51987 0 1 cbr 210 ------- 0 0.0 1.0 1 4
r 0.51987 3 0 cbr 210 ------- 0 3.0 0.1 1 5
+ 0.5225 0 1 cbr 210 ------- 0 0.0 1.0 6 16
- 0.5225 0 1 cbr 210 ------- 0 0.0 1.0 6 16
+ 0.5225 3 0 cbr 210 ------- 0 3.0 0.1 6 17
- 0.5225 3 0 cbr 210 ------- 0 3.0 0.1 6 17
r 0.52362 0 1 cbr 210 ------- 0 0.0 1.0 2 6
r 0.52362 3 0 cbr 210 ------- 0 3.0 0.1 2 7
+ 0.52625 0 1 cbr 210 ------- 0 0.0 1.0 7 18
- 0.52625 0 1 cbr 210 ------- 0 0.0 1.0 7 18
+ 0.52625 3 0 cbr 210 ------- 0 3.0 0.1 7 19
- 0.52625 3 0 cbr 210 ------- 0 3.0 0.1 7 19
r 0.52737 0 1 cbr 210 ------- 0 0.0 1.0 3 8
r 0.52737 3 0 cbr 210 ------- 0 3.0 0.1 3 9
+ 0.53 0 1 cbr 210 ------- 0 0.0 1.0 8 20
- 0.53 0 1 cbr 210 ------- 0 0.0 1.0 8 20
+ 0.53 3 0 cbr 210 ------- 0 3.0 0.1 8 21
- 0.53 3 0 cbr 210 ------- 0 3.0 0.1 8 21
r 0.530427 2 1 ack 40 ------- 0 2.1 1.1 0 12
+ 0.530427 1 2 tcp 1040 ------- 0 1.1 2.1 1 22
- 0.530427 1 2 tcp 1040 ------- 0 1.1 2.1 1 22
+ 0.530427 1 2 tcp 1040 ------- 0 1.1 2.1 2 23
r 0.530427 3 2 ack 40 ------- 0 3.1 2.0 0 13
+ 0.530427 2 3 tcp 1040 ------- 0 2.0 3.1 1 24
- 0.530427 2 3 tcp 1040 ------- 0 2.0 3.1 1 24
+ 0.530427 2 3 tcp 1040 ------- 0 2.0 3.1 2 25
r 0.53112 0 1 cbr 210 ------- 0 0.0 1.0 4 10
r 0.53112 3 0 cbr 210 ------- 0 3.0 0.1 4 11
+ 0.53375 0 1 cbr 210 ------- 0 0.0 1.0 9 26
- 0.53375 0 1 cbr 210 ------- 0 0.0 1.0 9 26
+ 0.53375 3 0 cbr 210 ------- 0 3.0 0.1 9 27
- 0.53375 3 0 cbr 210 ------- 0 3.0 0.1 9 27
r 0.53487 0 1 cbr 210 ------- 0 0.0 1.0 5 14
r 0.53487 3 0 cbr 210 ------- 0 3.0 0.1 5 15
- 0.535973 1 2 tcp 1040 ------- 0 1.1 2.1 2 23
- 0.535973 2 3 tcp 1040 ------- 0 2.0 3.1 2 25
+ 0.5375 0 1 cbr 210 ------- 0 0.0 1.0 10 28
- 0.5375 0 1 cbr 210 ------- 0 0.0 1.0 10 28
+ 0.5375 3 0 cbr 210 ------- 0 3.0 0.1 10 29
- 0.5375 3 0 cbr 210 ------- 0 3.0 0.1 10 29
r 0.53862 0 1 cbr 210 ------- 0 0.0 1.0 6 16
r 0.53862 3 0 cbr 210 ------- 0 3.0 0.1 6 17
+ 0.54125 0 1 cbr 210 ------- 0 0.0 1.0 11 30
- 0.54125 0 1 cbr 210 ------- 0 0.0 1.0 11 30
+ 0.54125 3 0 cbr 210 ------- 0 3.0 0.1 11 31
- 0.54125 3 0 cbr 210 ------- 0 3.0 0.1 11 31
r 0.54237 0 1 cbr 210 ------- 0 0.0 1.0 7 18
r 0.54237 3 0 cbr 210 ------- 0 3.0 0.1 7 19
+ 0.545 0 1 cbr 210 ------- 0 0.0 1.0 12 32
- 0.545 0 1 cbr 210 ------- 0 0.0 1.0 12 32
+ 0.545 3 0 cbr 210 ------- 0 3.0 0.1 12 33
- 0.545 3 0 cbr 210 ------- 0 3.0 0.1 12 33
r 0.54612 0 1 cbr 210 ------- 0 0.0 1.0 8 20
r 0.54612 3 0 cbr 210 ------- 0 3.0 0.1 8 21
+ 0.54875 0 1 cbr 210 ------- 0 0.0 1.0 13 34
- 0.54875 0 1 cbr 210 ------- 0 0.0 1.0 13 34
+ 0.54875 3 0 cbr 210 ------- 0 3.0 0.1 13 35
- 0.54875 3 0 cbr 210 ------- 0 3.0 0.1 13 35
r 0.54987 0 1 cbr 210 ------- 0 0.0 1.0 9 26
r 0.54987 3 0 cbr 210 ------- 0 3.0 0.1 9 27
r 0.550973 1 2 tcp 1040 ------- 0 1.1 2.1 1 22
+ 0.550973 2 1 ack 40 ------- 0 2.1 1.1 1 36
- 0.550973 2 1 ack 40 ------- 0 2.1 1.1 1 36
r 0.550973 2 3 tcp 1040 ------- 0 2.0 3.1 1 24
+ 0.550973 3 2 ack 40 ------- 0 3.1 2.0 1 37
- 0.550973 3 2 ack 40 ------- 0 3.1 2.0 1 37
+ 0.5525 0 1 cbr 210 ------- 0 0.0 1.0 14 38
- 0.5525 0 1 cbr 210 ------- 0 0.0 1.0 14 38
+ 0.5525 3 0 cbr 210 ------- 0 3.0 0.1 14 39
- 0.5525 3 0 cbr 210 ------- 0 3.0 0.1 14 39
r 0.55362 0 1 cbr 210 ------- 0 0.0 1.0 10 28
r 0.55362 3 0 cbr 210 ------- 0 3.0 0.1 10 29
+ 0.55625 0 1 cbr 210 ------- 0 0.0 1.0 15 40
- 0.55625 0 1 cbr 210 ------- 0 0.0 1.0 15 40
+ 0.55625 3 0 cbr 210 ------- 0 3.0 0.1 15 41
- 0.55625 3 0 cbr 210 ------- 0 3.0 0.1 15 41
r 0.55652 1 2 tcp 1040 ------- 0 1.1 2.1 2 23
+ 0.55652 2 1 ack 40 ------- 0 2.1 1.1 2 42
- 0.55652 2 1 ack 40 ------- 0 2.1 1.1 2 42
r 0.55652 2 3 tcp 1040 ------- 0 2.0 3.1 2 25
+ 0.55652 3 2 ack 40 ------- 0 3.1 2.0 2 43
- 0.55652 3 2 ack 40 ------- 0 3.1 2.0 2 43
r 0.55737 0 1 cbr 210 ------- 0 0.0 1.0 11 30
r 0.55737 3 0 cbr 210 ------- 0 3.0 0.1 11 31
+ 0.56 0 1 cbr 210 ------- 0 0.0 1.0 16 44
- 0.56 0 1 cbr 210 ------- 0 0.0 1.0 16 44
+ 0.56 3 0 cbr 210 ------- 0 3.0 0.1 16 45
- 0.56 3 0 cbr 210 ------- 0 3.0 0.1 16 45
r 0.56112 0 1 cbr 210 ------- 0 0.0 1.0 12 32
r 0.56112 3 0 cbr 210 ------- 0 3.0 0.1 12 33
+ 0.56375 0 1 cbr 210 ------- 0 0.0 1.0 17 46
- 0.56375 0 1 cbr 210 ------- 0 0.0 1.0 17 46
+ 0.56375 3 0 cbr 210 ------- 0 3.0 0.1 17 47
- 0.56375 3 0 cbr 210 ------- 0 3.0 0.1 17 47
r 0.56487 0 1 cbr 210 ------- 0 0.0 1.0 13 34
r 0.56487 3 0 cbr 210 ------- 0 3.0 0.1 13 35
r 0.566187 2 1 ack 40 ------- 0 2.1 1.1 1 36
+ 0.566187 1 2 tcp 1040 ------- 0 1.1 2.1 3 48
- 0.566187 1 2 tcp 1040 ------- 0 1.1 2.1 3 48
+ 0.566187 1 2 tcp 1040 ------- 0 1.1 2.1 4 49
r 0.566187 3 2 ack 40 ------- 0 3.1 2.0 1 37
+ 0.566187 2 3 tcp 1040 ------- 0 2.0 3.1 3 50
- 0.566187 2 3 tcp 1040 ------- 0 2.0 3.1 3 50
+ 0.566187 2 3 tcp 1040 ------- 0 2.0 3.1 4 51
+ 0.5675 0 1 cbr 210 ------- 0 0.0 1.0 18 52
- 0.5675 0 1 cbr 210 ------- 0 0.0 1.0 18 52
+ 0.5675 3 0 cbr 210 ------- 0 3.0 0.1 18 53
- 0.5675 3 0 cbr 210 ------- 0 3.0 0.1 18 53
r 0.56862 0 1 cbr 210 ------- 0 0.0 1.0 14 38
r 0.56862 3 0 cbr 210 ------- 0 3.0 0.1 14 39
+ 0.57125 0 1 cbr 210 ------- 0 0.0 1.0 19 54
- 0.57125 0 1 cbr 210 ------- 0 0.0 1.0 19 54
+ 0.57125 3 0 cbr 210 ------- 0 3.0 0.1 19 55
- 0.57125 3 0 cbr 210 ------- 0 3.0 0.1 19 55
r 0.571733 2 1 ack 40 ------- 0 2.1 1.1 2 42
+ 0.571733 1 2 tcp 1040 ------- 0 1.1 2.1 5 56
+ 0.571733 1 2 tcp 1040 ------- 0 1.1 2.1 6 57
r 0.571733 3 2 ack 40 ------- 0 3.1 2.0 2 43
+ 0.571733 2 3 tcp 1040 ------- 0 2.0 3.1 5 58
+ 0.571733 2 3 tcp 1040 ------- 0 2.0 3.1 6 59
- 0.571733 1 2 tcp 1040 ------- 0 1.1 2.1 4 49
- 0.571733 2 3 tcp 1040 ------- 0 2.0 3.1 4 51
r 0.57237 0 1 cbr 210 ------- 0 0.0 1.0 15 40
r 0.57237 3 0 cbr 210 ------- 0 3.0 0.1 15 41
+ 0.575 0 1 cbr 210 ------- 0 0.0 1.0 20 60
- 0.575 0 1 cbr 210 ------- 0 0.0 1.0 20 60
+ 0.575 3 0 cbr 210 ------- 0 3.0 0.1 20 61
- 0.575 3 0 cbr 210 ------- 0 3.0 0.1 20 61
r 0.57612 0 1 cbr 210 ------- 0 0.0 1.0 16 44
r 0.57612 3 0 cbr 210 ------- 0 3.0 0.1 16 45
- 0.57728 1 2 tcp 1040 ------- 0 1.1 2.1 5 56
- 0.57728 2 3 tcp 1040 ------- 0 2.0 3.1 5 58
+ 0.57875 0 1 cbr 210 ------- 0 0.0 1.0 21 62
- 0.57875 0 1 cbr 210 ------- 0 0.0 1.0 21 62
+ 0.57875 3 0 cbr 210 ------- 0 3.0 0.1 21 63
- 0.57875 3 0 cbr 210 ------- 0 3.0 0.1 21 63
r 0.57987 0 1 cbr 210 ------- 0 0.0 1.0 17 46
r 0.57987 3 0 cbr 210 ------- 0 3.0 0.1 17 47
+ 0.5825 0 1 cbr 210 ------- 0 0.0 1.0 22 64
- 0.5825 0 1 cbr 210 ------- 0 0.0 1.0 22 64
+ 0.5825 3 0 cbr 210 ------- 0 3.0 0.1 22 65
- 0.5825 3 0 cbr 210 ------- 0 3.0 0.1 22 65
- 0.582827 1 2 tcp 1040 ------- 0 1.1 2.1 6 57
- 0.582827 2 3 tcp 1040 ------- 0 2.0 3.1 6 59
r 0.58362 0 1 cbr 210 ------- 0 0.0 1.0 18 52
r 0.58362 3 0 cbr 210 ------- 0 3.0 0.1 18 53
+ 0.58625 0 1 cbr 210 ------- 0 0.0 1.0 23 66
- 0.58625 0 1 cbr 210 ------- 0 0.0 1.0 23 66
+ 0.58625 3 0 cbr 210 ------- 0 3.0 0.1 23 67
- 0.58625 3 0 cbr 210 ------- 0 3.0 0.1 23 67
r 0.586733 1 2 tcp 1040 ------- 0 1.1 2.1 3 48
+ 0.586733 2 1 ack 40 ------- 0 2.1 1.1 3 68
- 0.586733 2 1 ack 40 ------- 0 2.1 1.1 3 68
r 0.586733 2 3 tcp 1040 ------- 0 2.0 3.1 3 50
+ 0.586733 3 2 ack 40 ------- 0 3.1 2.0 3 69
- 0.586733 3 2 ack 40 ------- 0 3.1 2.0 3 69
r 0.58737 0 1 cbr 210 ------- 0 0.0 1.0 19 54
r 0.58737 3 0 cbr 210 ------- 0 3.0 0.1 19 55
+ 0.59 0 1 cbr 210 ------- 0 0.0 1.0 24 70
- 0.59 0 1 cbr 210 ------- 0 0.0 1.0 24 70
+ 0.59 3 0 cbr 210 ------- 0 3.0 0.1 24 71
- 0.59 3 0 cbr 210 ------- 0 3.0 0.1 24 71
r 0.59112 0 1 cbr 210 ------- 0 0.0 1.0 20 60
r 0.59112 3 0 cbr 210 ------- 0 3.0 0.1 20 61
r 0.59228 1 2 tcp 1040 ------- 0 1.1 2.1 4 49
+ 0.59228 2 1 ack 40 ------- 0 2.1 1.1 4 72
- 0.59228 2 1 ack 40 ------- 0 2.1 1.1 4 72
r 0.59228 2 3 tcp 1040 ------- 0 2.0 3.1 4 51
+ 0.59228 3 2 ack 40 ------- 0 3.1 2.0 4 73
- 0.59228 3 2 ack 40 ------- 0 3.1 2.0 4 73
+ 0.59375 0 1 cbr 210 ------- 0 0.0 1.0 25 74
- 0.59375 0 1 cbr 210 ------- 0 0.0 1.0 25 74
+ 0.59375 3 0 cbr 210 ------- 0 3.0 0.1 25 75
- 0.59375 3 0 cbr 210 ------- 0 3.0 0.1 25 75
r 0.59487 0 1 cbr 210 ------- 0 0.0 1.0 21 62
r 0.59487 3 0 cbr 210 ------- 0 3.0 0.1 21 63
+ 0.5975 0 1 cbr 210 ------- 0 0.0 1.0 26 76
- 0.5975 0 1 cbr 210 ------- 0 0.0 1.0 26 76
+ 0.5975 3 0 cbr 210 ------- 0 3.0 0.1 26 77
- 0.5975 3 0 cbr 210 ------- 0 3.0 0.1 26 77
r 0.597827 1 2 tcp 1040 ------- 0 1.1 2.1 5 56
+ 0.597827 2 1 ack 40 ------- 0 2.1 1.1 5 78
- 0.597827 2 1 ack 40 ------- 0 2.1 1.1 5 78
r 0.597827 2 3 tcp 1040 ------- 0 2.0 3.1 5 58
+ 0.597827 3 2 ack 40 ------- 0 3.1 2.0 5 79
- 0.597827 3 2 ack 40 ------- 0 3.1 2.0 5 79
r 0.59862 0 1 cbr 210 ------- 0 0.0 1.0 22 64
r 0.59862 3 0 cbr 210 ------- 0 3.0 0.1 22 65
+ 0.60125 0 1 cbr 210 ------- 0 0.0 1.0 27 80
- 0.60125 0 1 cbr 210 ------- 0 0.0 1.0 27 80
+ 0.60125 3 0 cbr 210 ------- 0 3.0 0.1 27 81
- 0.60125 3 0 cbr 210 ------- 0 3.0 0.1 27 81
r 0.601947 2 1 ack 40 ------- 0 2.1 1.1 3 68
+ 0.601947 1 2 tcp 1040 ------- 0 1.1 2.1 7 82
- 0.601947 1 2 tcp 1040 ------- 0 1.1 2.1 7 82
+ 0.601947 1 2 tcp 1040 ------- 0 1.1 2.1 8 83
r 0.601947 3 2 ack 40 ------- 0 3.1 2.0 3 69
+ 0.601947 2 3 tcp 1040 ------- 0 2.0 3.1 7 84
- 0.601947 2 3 tcp 1040 ------- 0 2.0 3.1 7 84
+ 0.601947 2 3 tcp 1040 ------- 0 2.0 3.1 8 85
r 0.60237 0 1 cbr 210 ------- 0 0.0 1.0 23 66
r 0.60237 3 0 cbr 210 ------- 0 3.0 0.1 23 67
r 0.603373 1 2 tcp 1040 ------- 0 1.1 2.1 6 57
+ 0.603373 2 1 ack 40 ------- 0 2.1 1.1 6 86
- 0.603373 2 1 ack 40 ------- 0 2.1 1.1 6 86
r 0.603373 2 3 tcp 1040 ------- 0 2.0 3.1 6 59
+ 0.603373 3 2 ack 40 ------- 0 3.1 2.0 6 87
- 0.603373 3 2 ack 40 ------- 0 3.1 2.0 6 87
+ 0.605 0 1 cbr 210 ------- 0 0.0 1.0 28 88
- 0.605 0 1 cbr 210 ------- 0 0.0 1.0 28 88
+ 0.605 3 0 cbr 210 ------- 0 3.0 0.1 28 89
- 0.605 3 0 cbr 210 ------- 0 3.0 0.1 28 89
r 0.60612 0 1 cbr 210 ------- 0 0.0 1.0 24 70
r 0.60612 3 0 cbr 210 ------- 0 3.0 0.1 24 71
r 0.607493 2 1 ack 40 ------- 0 2.1 1.1 4 72
+ 0.607493 1 2 tcp 1040 ------- 0 1.1 2.1 9 90
+ 0.607493 1 2 tcp 1040 ------- 0 1.1 2.1 10 91
r 0.607493 3 2 ack 40 ------- 0 3.1 2.0 4 73
+ 0.607493 2 3 tcp 1040 ------- 0 2.0 3.1 9 92
+ 0.607493 2 3 tcp 1040 ------- 0 2.0 3.1 10 93
- 0.607493 1 2 tcp 1040 ------- 0 1.1 2.1 8 83
- 0.607493 2 3 tcp 1040 ------- 0 2.0 3.1 8 85
+ 0.60875 0 1 cbr 210 ------- 0 0.0 1.0 29 94
- 0.60875 0 1 cbr 210 ------- 0 0.0 1.0 29 94
+ 0.60875 3 0 cbr 210 ------- 0 3.0 0.1 29 95
- 0.60875 3 0 cbr 210 ------- 0 3.0 0.1 29 95
r 0.60987 0 1 cbr 210 ------- 0 0.0 1.0 25 74
r 0.60987 3 0 cbr 210 ------- 0 3.0 0.1 25 75
+ 0.6125 0 1 cbr 210 ------- 0 0.0 1.0 30 96
- 0.6125 0 1 cbr 210 ------- 0 0.0 1.0 30 96
+ 0.6125 3 0 cbr 210 ------- 0 3.0 0.1 30 97
- 0.6125 3 0 cbr 210 ------- 0 3.0 0.1 30 97
r 0.61304 2 1 ack 40 ------- 0 2.1 1.1 5 78
+ 0.61304 1 2 tcp 1040 ------- 0 1.1 2.1 11 98
+ 0.61304 1 2 tcp 1040 ------- 0 1.1 2.1 12 99
r 0.61304 3 2 ack 40 ------- 0 3.1 2.0 5 79
+ 0.61304 2 3 tcp 1040 ------- 0 2.0 3.1 11 100
+ 0.61304 2 3 tcp 1040 ------- 0 2.0 3.1 12 101
- 0.61304 1 2 tcp 1040 ------- 0 1.1 2.1 9 90
- 0.61304 2 3 tcp 1040 ------- 0 2.0 3.1 9 92
r 0.61362 0 1 cbr 210 ------- 0 0.0 1.0 26 76
r 0.61362 3 0 cbr 210 ------- 0 3.0 0.1 26 77
+ 0.61625 0 1 cbr 210 ------- 0 0.0 1.0 31 102
- 0.61625 0 1 cbr 210 ------- 0 0.0 1.0 31 102
+ 0.61625 3 0 cbr 210 ------- 0 3.0 0.1 31 103
- 0.61625 3 0 cbr 210 ------- 0 3.0 0.1 31 103
r 0.61737 0 1 cbr 210 ------- 0 0.0 1.0 27 80
r 0.61737 3 0 cbr 210 ------- 0 3.0 0.1 27 81
r 0.618587 2 1 ack 40 ------- 0 2.1 1.1 6 86
+ 0.618587 1 2 tcp 1040 ------- 0 1.1 2.1 13 104
+ 0.618587 1 2 tcp 1040 ------- 0 1.1 2.1 14 105
r 0.618587 3 2 ack 40 ------- 0 3.1 2.0 6 87
+ 0.618587 2 3 tcp 1040 ------- 0 2.0 3.1 13 106
+ 0.618587 2 3 tcp 1040 ------- 0 2.0 3.1 14 107
- 0.618587 1 2 tcp 1040 ------- 0 1.1 2.1 10 91
- 0.618587 2 3 tcp 1040 ------- 0 2.0 3.1 10 93
+ 0.62 0 1 cbr 210 ------- 0 0.0 1.0 32 108
- 0.62 0 1 cbr 210 ------- 0 0.0 1.0 32 108
+ 0.62 3 0 cbr 210 ------- 0 3.0 0.1 32 109
- 0.62 3 0 cbr 210 ------- 0 3.0 0.1 32 109
r 0.62112 0 1 cbr 210 ------- 0 0.0 1.0 28 88
r 0.62112 3 0 cbr 210 ------- 0 3.0 0.1 28 89
r 0.622493 1 2 tcp 1040 ------- 0 1.1 2.1 7 82
+ 0.622493 2 1 ack 40 ------- 0 2.1 1.1 7 110
- 0.622493 2 1 ack 40 ------- 0 2.1 1.1 7 110
r 0.622493 2 3 tcp 1040 ------- 0 2.0 3.1 7 84
+ 0.622493 3 2 ack 40 ------- 0 3.1 2.0 7 111
- 0.622493 3 2 ack 40 ------- 0 3.1 2.0 7 111
+ 0.62375 0 1 cbr 210 ------- 0 0.0 1.0 33 112
- 0.62375 0 1 cbr 210 ------- 0 0.0 1.0 33 112
+ 0.62375 3 0 cbr 210 ------- 0 3.0 0.1 33 113
- 0.62375 3 0 cbr 210 ------- 0 3.0 0.1 33 113
- 0.624133 1 2 tcp 1040 ------- 0 1.1 2.1 11 98
- 0.624133 2 3 tcp 1040 ------- 0 2.0 3.1 11 100
r 0.62487 0 1 cbr 210 ------- 0 0.0 1.0 29 94
r 0.62487 3 0 cbr 210 ------- 0 3.0 0.1 29 95
+ 0.6275 0 1 cbr 210 ------- 0 0.0 1.0 34 114
- 0.6275 0 1 cbr 210 ------- 0 0.0 1.0 34 114
+ 0.6275 3 0 cbr 210 ------- 0 3.0 0.1 34 115
- 0.6275 3 0 cbr 210 ------- 0 3.0 0.1 34 115
r 0.62804 1 2 tcp 1040 ------- 0 1.1 2.1 8 83
+ 0.62804 2 1 ack 40 ------- 0 2.1 1.1 8 116
- 0.62804 2 1 ack 40 ------- 0 2.1 1.1 8 116
r 0.62804 2 3 tcp 1040 ------- 0 2.0 3.1 8 85
+ 0.62804 3 2 ack 40 ------- 0 3.1 2.0 8 117
- 0.62804 3 2 ack 40 ------- 0 3.1 2.0 8 117
r 0.62862 0 1 cbr 210 ------- 0 0.0 1.0 30 96
r 0.62862 3 0 cbr 210 ------- 0 3.0 0.1 30 97
- 0.62968 1 2 tcp 1040 ------- 0 1.1 2.1 12 99
- 0.62968 2 3 tcp 1040 ------- 0 2.0 3.1 12 101
+ 0.63125 0 1 cbr 210 ------- 0 0.0 1.0 35 118
- 0.63125 0 1 cbr 210 ------- 0 0.0 1.0 35 118
+ 0.63125 3 0 cbr 210 ------- 0 3.0 0.1 35 119
- 0.63125 3 0 cbr 210 ------- 0 3.0 0.1 35 119
r 0.63237 0 1 cbr 210 ------- 0 0.0 1.0 31 102
r 0.63237 3 0 cbr 210 ------- 0 3.0 0.1 31 103
r 0.633587 1 2 tcp 1040 ------- 0 1.1 2.1 9 90
+ 0.633587 2 1 ack 40 ------- 0 2.1 1.1 9 120
- 0.633587 2 1 ack 40 ------- 0 2.1 1.1 9 120
r 0.633587 2 3 tcp 1040 ------- 0 2.0 3.1 9 92
+ 0.633587 3 2 ack 40 ------- 0 3.1 2.0 9 121
- 0.633587 3 2 ack 40 ------- 0 3.1 2.0 9 121
+ 0.635 0 1 cbr 210 ------- 0 0.0 1.0 36 122
- 0.635 0 1 cbr 210 ------- 0 0.0 1.0 36 122
+ 0.635 3 0 cbr 210 ------- 0 3.0 0.1 36 123
- 0.635 3 0 cbr 210 ------- 0 3.0 0.1 36 123
- 0.635227 1 2 tcp 1040 ------- 0 1.1 2.1 13 104
- 0.635227 2 3 tcp 1040 ------- 0 2.0 3.1 13 106
r 0.63612 0 1 cbr 210 ------- 0 0.0 1.0 32 108
r 0.63612 3 0 cbr 210 ------- 0 3.0 0.1 32 109
r 0.637707 2 1 ack 40 ------- 0 2.1 1.1 7 110
+ 0.637707 1 2 tcp 1040 ------- 0 1.1 2.1 15 124
+ 0.637707 1 2 tcp 1040 ------- 0 1.1 2.1 16 125
r 0.637707 3 2 ack 40 ------- 0 3.1 2.0 7 111
+ 0.637707 2 3 tcp 1040 ------- 0 2.0 3.1 15 126
+ 0.637707 2 3 tcp 1040 ------- 0 2.0 3.1 16 127
+ 0.63875 0 1 cbr 210 ------- 0 0.0 1.0 37 128
- 0.63875 0 1 cbr 210 ------- 0 0.0 1.0 37 128
+ 0.63875 3 0 cbr 210 ------- 0 3.0 0.1 37 129
- 0.63875 3 0 cbr 210 ------- 0 3.0 0.1 37 129
r 0.639133 1 2 tcp 1040 ------- 0 1.1 2.1 10 91
+ 0.639133 2 1 ack 40 ------- 0 2.1 1.1 10 130
- 0.639133 2 1 ack 40 ------- 0 2.1 1.1 10 130
r 0.639133 2 3 tcp 1040 ------- 0 2.0 3.1 10 93
+ 0.639133 3 2 ack 40 ------- 0 3.1 2.0 10 131
- 0.639133 3 2 ack 40 ------- 0 3.1 2.0 10 131
r 0.63987 0 1 cbr 210 ------- 0 0.0 1.0 33 112
r 0.63987 3 0 cbr 210 ------- 0 3.0 0.1 33 113
- 0.640773 1 2 tcp 1040 ------- 0 1.1 2.1 14 105
- 0.640773 2 3 tcp 1040 ------- 0 2.0 3.1 14 107
+ 0.6425 0 1 cbr 210 ------- 0 0.0 1.0 38 132
- 0.6425 0 1 cbr 210 ------- 0 0.0 1.0 38 132
+ 0.6425 3 0 cbr 210 ------- 0 3.0 0.1 38 133
- 0.6425 3 0 cbr 210 ------- 0 3.0 0.1 38 133
r 0.643253 2 1 ack 40 ------- 0 2.1 1.1 8 116
+ 0.643253 1 2 tcp 1040 ------- 0 1.1 2.1 17 134
+ 0.643253 1 2 tcp 1040 ------- 0 1.1 2.1 18 135
r 0.643253 3 2 ack 40 ------- 0 3.1 2.0 8 117
+ 0.643253 2 3 tcp 1040 ------- 0 2.0 3.1 17 136
+ 0.643253 2 3 tcp 1040 ------- 0 2.0 3.1 18 137
r 0.64362 0 1 cbr 210 ------- 0 0.0 1.0 34 114
r 0.64362 3 0 cbr 210 ------- 0 3.0 0.1 34 115
r 0.64468 1 2 tcp 1040 ------- 0 1.1 2.1 11 98
+ 0.64468 2 1 ack 40 ------- 0 2.1 1.1 11 138
- 0.64468 2 1 ack 40 ------- 0 2.1 1.1 11 138
r 0.64468 2 3 tcp 1040 ------- 0 2.0 3.1 11 100
+ 0.64468 3 2 ack 40 ------- 0 3.1 2.0 11 139
- 0.64468 3 2 ack 40 ------- 0 3.1 2.0 11 139
+ 0.64625 0 1 cbr 210 ------- 0 0.0 1.0 39 140
- 0.64625 0 1 cbr 210 ------- 0 0.0 1.0 39 140
+ 0.64625 3 0 cbr 210 ------- 0 3.0 0.1 39 141
- 0.64625 3 0 cbr 210 ------- 0 3.0 0.1 39 141
- 0.64632 1 2 tcp 1040 ------- 0 1.1 2.1 15 124
- 0.64632 2 3 tcp 1040 ------- 0 2.0 3.1 15 126
r 0.64737 0 1 cbr 210 ------- 0 0.0 1.0 35 118
r 0.64737 3 0 cbr 210 ------- 0 3.0 0.1 35 119
r 0.6488 2 1 ack 40 ------- 0 2.1 1.1 9 120
+ 0.6488 1 2 tcp 1040 ------- 0 1.1 2.1 19 142
+ 0.6488 1 2 tcp 1040 ------- 0 1.1 2.1 20 143
r 0.6488 3 2 ack 40 ------- 0 3.1 2.0 9 121
+ 0.6488 2 3 tcp 1040 ------- 0 2.0 3.1 19 144
+ 0.6488 2 3 tcp 1040 ------- 0 2.0 3.1 20 145
+ 0.65 0 1 cbr 210 ------- 0 0.0 1.0 40 146
- 0.65 0 1 cbr 210 ------- 0 0.0 1.0 40 146
+ 0.65 3 0 cbr 210 ------- 0 3.0 0.1 40 147
- 0.65 3 0 cbr 210 ------- 0 3.0 0.1 40 147
r 0.650227 1 2 tcp 1040 ------- 0 1.1 2.1 12 99
+ 0.650227 2 1 ack 40 ------- 0 2.1 1.1 12 148
- 0.650227 2 1 ack 40 ------- 0 2.1 1.1 12 148
r 0.650227 2 3 tcp 1040 ------- 0 2.0 3.1 12 101
+ 0.650227 3 2 ack 40 ------- 0 3.1 2.0 12 149
- 0.650227 3 2 ack 40 ------- 0 3.1 2.0 12 149
r 0.65112 0 1 cbr 210 ------- 0 0.0 1.0 36 122
r 0.65112 3 0 cbr 210 ------- 0 3.0 0.1 36 123
- 0.651867 1 2 tcp 1040 ------- 0 1.1 2.1 16 125
- 0.651867 2 3 tcp 1040 ------- 0 2.0 3.1 16 127
+ 0.65375 0 1 cbr 210 ------- 0 0.0 1.0 41 150
- 0.65375 0 1 cbr 210 ------- 0 0.0 1.0 41 150
+ 0.65375 3 0 cbr 210 ------- 0 3.0 0.1 41 151
- 0.65375 3 0 cbr 210 ------- 0 3.0 0.1 41 151
r 0.654347 2 1 ack 40 ------- 0 2.1 1.1 10 130
+ 0.654347 1 2 tcp 1040 ------- 0 1.1 2.1 21 152
+ 0.654347 1 2 tcp 1040 ------- 0 1.1 2.1 22 153
r 0.654347 3 2 ack 40 ------- 0 3.1 2.0 10 131
+ 0.654347 2 3 tcp 1040 ------- 0 2.0 3.1 21 154
+ 0.654347 2 3 tcp 1040 ------- 0 2.0 3.1 22 155
r 0.65487 0 1 cbr 210 ------- 0 0.0 1.0 37 128
r 0.65487 3 0 cbr 210 ------- 0 3.0 0.1 37 129
r 0.655773 1 2 tcp 1040 ------- 0 1.1 2.1 13 104
+ 0.655773 2 1 ack 40 ------- 0 2.1 1.1 13 156
- 0.655773 2 1 ack 40 ------- 0 2.1 1.1 13 156
r 0.655773 2 3 tcp 1040 ------- 0 2.0 3.1 13 106
+ 0.655773 3 2 ack 40 ------- 0 3.1 2.0 13 157
- 0.655773 3 2 ack 40 ------- 0 3.1 2.0 13 157
- 0.657413 1 2 tcp 1040 ------- 0 1.1 2.1 17 134
- 0.657413 2 3 tcp 1040 ------- 0 2.0 3.1 17 136
+ 0.6575 0 1 cbr 210 ------- 0 0.0 1.0 42 158
- 0.6575 0 1 cbr 210 ------- 0 0.0 1.0 42 158
+ 0.6575 3 0 cbr 210 ------- 0 3.0 0.1 42 159
- 0.6575 3 0 cbr 210 ------- 0 3.0 0.1 42 159
r 0.65862 0 1 cbr 210 ------- 0 0.0 1.0 38 132
r 0.65862 3 0 cbr 210 ------- 0 3.0 0.1 38 133
r 0.659893 2 1 ack 40 ------- 0 2.1 1.1 11 138
+ 0.659893 1 2 tcp 1040 ------- 0 1.1 2.1 23 160
+ 0.659893 1 2 tcp 1040 ------- 0 1.1 2.1 24 161
r 0.659893 3 2 ack 40 ------- 0 3.1 2.0 11 139
+ 0.659893 2 3 tcp 1040 ------- 0 2.0 3.1 23 162
+ 0.659893 2 3 tcp 1040 ------- 0 2.0 3.1 24 163
+ 0.66125 0 1 cbr 210 ------- 0 0.0 1.0 43 164
- 0.66125 0 1 cbr 210 ------- 0 0.0 1.0 43 164
+ 0.66125 3 0 cbr 210 ------- 0 3.0 0.1 43 165
- 0.66125 3 0 cbr 210 ------- 0 3.0 0.1 43 165
r 0.66132 1 2 tcp 1040 ------- 0 1.1 2.1 14 105
+ 0.66132 2 1 ack 40 ------- 0 2.1 1.1 14 166
- 0.66132 2 1 ack 40 ------- 0 2.1 1.1 14 166
r 0.66132 2 3 tcp 1040 ------- 0 2.0 3.1 14 107
+ 0.66132 3 2 ack 40 ------- 0 3.1 2.0 14 167
- 0.66132 3 2 ack 40 ------- 0 3.1 2.0 14 167
r 0.66237 0 1 cbr 210 ------- 0 0.0 1.0 39 140
r 0.66237 3 0 cbr 210 ------- 0 3.0 0.1 39 141
- 0.66296 1 2 tcp 1040 ------- 0 1.1 2.1 18 135
- 0.66296 2 3 tcp 1040 ------- 0 2.0 3.1 18 137
+ 0.665 0 1 cbr 210 ------- 0 0.0 1.0 44 168
- 0.665 0 1 cbr 210 ------- 0 0.0 1.0 44 168
+ 0.665 3 0 cbr 210 ------- 0 3.0 0.1 44 169
- 0.665 3 0 cbr 210 ------- 0 3.0 0.1 44 169
r 0.66544 2 1 ack 40 ------- 0 2.1 1.1 12 148
+ 0.66544 1 2 tcp 1040 ------- 0 1.1 2.1 25 170
+ 0.66544 1 2 tcp 1040 ------- 0 1.1 2.1 26 171
r 0.66544 3 2 ack 40 ------- 0 3.1 2.0 12 149
+ 0.66544 2 3 tcp 1040 ------- 0 2.0 3.1 25 172
+ 0.66544 2 3 tcp 1040 ------- 0 2.0 3.1 26 173
r 0.66612 0 1 cbr 210 ------- 0 0.0 1.0 40 146
r 0.66612 3 0 cbr 210 ------- 0 3.0 0.1 40 147
r 0.666867 1 2 tcp 1040 ------- 0 1.1 2.1 15 124
+ 0.666867 2 1 ack 40 ------- 0 2.1 1.1 15 174
- 0.666867 2 1 ack 40 ------- 0 2.1 1.1 15 174
r 0.666867 2 3 tcp 1040 ------- 0 2.0 3.1 15 126
+ 0.666867 3 2 ack 40 ------- 0 3.1 2.0 15 175
- 0.666867 3 2 ack 40 ------- 0 3.1 2.0 15 175
- 0.668507 1 2 tcp 1040 ------- 0 1.1 2.1 19 142
- 0.668507 2 3 tcp 1040 ------- 0 2.0 3.1 19 144
+ 0.66875 0 1 cbr 210 ------- 0 0.0 1.0 45 176
- 0.66875 0 1 cbr 210 ------- 0 0.0 1.0 45 176
+ 0.66875 3 0 cbr 210 ------- 0 3.0 0.1 45 177
- 0.66875 3 0 cbr 210 ------- 0 3.0 0.1 45 177
r 0.66987 0 1 cbr 210 ------- 0 0.0 1.0 41 150
r 0.66987 3 0 cbr 210 ------- 0 3.0 0.1 41 151
r 0.670987 2 1 ack 40 ------- 0 2.1 1.1 13 156
+ 0.670987 1 2 tcp 1040 ------- 0 1.1 2.1 27 178
+ 0.670987 1 2 tcp 1040 ------- 0 1.1 2.1 28 179
r 0.670987 3 2 ack 40 ------- 0 3.1 2.0 13 157
+ 0.670987 2 3 tcp 1040 ------- 0 2.0 3.1 27 180
+ 0.670987 2 3 tcp 1040 ------- 0 2.0 3.1 28 181
r 0.672413 1 2 tcp 1040 ------- 0 1.1 2.1 16 125
+ 0.672413 2 1 ack 40 ------- 0 2.1 1.1 16 182
- 0.672413 2 1 ack 40 ------- 0 2.1 1.1 16 182
r 0.672413 2 3 tcp 1040 ------- 0 2.0 3.1 16 127
+ 0.672413 3 2 ack 40 ------- 0 3.1 2.0 16 183
- 0.672413 3 2 ack 40 ------- 0 3.1 2.0 16 183
+ 0.6725 0 1 cbr 210 ------- 0 0.0 1.0 46 184
- 0.6725 0 1 cbr 210 ------- 0 0.0 1.0 46 184
+ 0.6725 3 0 cbr 210 ------- 0 3.0 0.1 46 185
- 0.6725 3 0 cbr 210 ------- 0 3.0 0.1 46 185
r 0.67362 0 1 cbr 210 ------- 0 0.0 1.0 42 158
r 0.67362 3 0 cbr 210 ------- 0 3.0 0.1 42 159
- 0.674053 1 2 tcp 1040 ------- 0 1.1 2.1 20 143
- 0.674053 2 3 tcp 1040 ------- 0 2.0 3.1 20 145
+ 0.67625 0 1 cbr 210 ------- 0 0.0 1.0 47 186
- 0.67625 0 1 cbr 210 ------- 0 0.0 1.0 47 186
+ 0.67625 3 0 cbr 210 ------- 0 3.0 0.1 47 187
- 0.67625 3 0 cbr 210 ------- 0 3.0 0.1 47 187
r 0.676533 2 1 ack 40 ------- 0 2.1 1.1 14 166
+ 0.676533 1 2 tcp 1040 ------- 0 1.1 2.1 29 188
+ 0.676533 1 2 tcp 1040 ------- 0 1.1 2.1 30 189
r 0.676533 3 2 ack 40 ------- 0 3.1 2.0 14 167
+ 0.676533 2 3 tcp 1040 ------- 0 2.0 3.1 29 190
+ 0.676533 2 3 tcp 1040 ------- 0 2.0 3.1 30 191
r 0.67737 0 1 cbr 210 ------- 0 0.0 1.0 43 164
r 0.67737 3 0 cbr 210 ------- 0 3.0 0.1 43 165
r 0.67796 1 2 tcp 1040 ------- 0 1.1 2.1 17 134
+ 0.67796 2 1 ack 40 ------- 0 2.1 1.1 17 192
- 0.67796 2 1 ack 40 ------- 0 2.1 1.1 17 192
r 0.67796 2 3 tcp 1040 ------- 0 2.0 3.1 17 136
+ 0.67796 3 2 ack 40 ------- 0 3.1 2.0 17 193
- 0.67796 3 2 ack 40 ------- 0 3.1 2.0 17 193
- 0.6796 1 2 tcp 1040 ------- 0 1.1 2.1 21 152
- 0.6796 2 3 tcp 1040 ------- 0 2.0 3.1 21 154
+ 0.68 0 1 cbr 210 ------- 0 0.0 1.0 48 194
- 0.68 0 1 cbr 210 ------- 0 0.0 1.0 48 194
+ 0.68 3 0 cbr 210 ------- 0 3.0 0.1 48 195
- 0.68 3 0 cbr 210 ------- 0 3.0 0.1 48 195
r 0.68112 0 1 cbr 210 ------- 0 0.0 1.0 44 168
r 0.68112 3 0 cbr 210 ------- 0 3.0 0.1 44 169
r 0.68208 2 1 ack 40 ------- 0 2.1 1.1 15 174
+ 0.68208 1 2 tcp 1040 ------- 0 1.1 2.1 31 196
+ 0.68208 1 2 tcp 1040 ------- 0 1.1 2.1 32 197
r 0.68208 3 2 ack 40 ------- 0 3.1 2.0 15 175
+ 0.68208 2 3 tcp 1040 ------- 0 2.0 3.1 31 198
+ 0.68208 2 3 tcp 1040 ------- 0 2.0 3.1 32 199
r 0.683507 1 2 tcp 1040 ------- 0 1.1 2.1 18 135
+ 0.683507 2 1 ack 40 ------- 0 2.1 1.1 18 200
- 0.683507 2 1 ack 40 ------- 0 2.1 1.1 18 200
r 0.683507 2 3 tcp 1040 ------- 0 2.0 3.1 18 137
+ 0.683507 3 2 ack 40 ------- 0 3.1 2.0 18 201
- 0.683507 3 2 ack 40 ------- 0 3.1 2.0 18 201
+ 0.68375 0 1 cbr 210 ------- 0 0.0 1.0 49 202
- 0.68375 0 1 cbr 210 ------- 0 0.0 1.0 49 202
+ 0.68375 3 0 cbr 210 ------- 0 3.0 0.1 49 203
- 0.68375 3 0 cbr 210 ------- 0 3.0 0.1 49 203
r 0.68487 0 1 cbr 210 ------- 0 0.0 1.0 45 176
r 0.68487 3 0 cbr 210 ------- 0 3.0 0.1 45 177
- 0.685147 1 2 tcp 1040 ------- 0 1.1 2.1 22 153
- 0.685147 2 3 tcp 1040 ------- 0 2.0 3.1 22 155
+ 0.6875 0 1 cbr 210 ------- 0 0.0 1.0 50 204
- 0.6875 0 1 cbr 210 ------- 0 0.0 1.0 50 204
+ 0.6875 3 0 cbr 210 ------- 0 3.0 0.1 50 205
- 0.6875 3 0 cbr 210 ------- 0 3.0 0.1 50 205
r 0.687627 2 1 ack 40 ------- 0 2.1 1.1 16 182
+ 0.687627 1 2 tcp 1040 ------- 0 1.1 2.1 33 206
+ 0.687627 1 2 tcp 1040 ------- 0 1.1 2.1 34 207
r 0.687627 3 2 ack 40 ------- 0 3.1 2.0 16 183
+ 0.687627 2 3 tcp 1040 ------- 0 2.0 3.1 33 208
+ 0.687627 2 3 tcp 1040 ------- 0 2.0 3.1 34 209
r 0.68862 0 1 cbr 210 ------- 0 0.0 1.0 46 184
r 0.68862 3 0 cbr 210 ------- 0 3.0 0.1 46 185
r 0.689053 1 2 tcp 1040 ------- 0 1.1 2.1 19 142
+ 0.689053 2 1 ack 40 ------- 0 2.1 1.1 19 210
- 0.689053 2 1 ack 40 ------- 0 2.1 1.1 19 210
r 0.689053 2 3 tcp 1040 ------- 0 2.0 3.1 19 144
+ 0.689053 3 2 ack 40 ------- 0 3.1 2.0 19 211
- 0.689053 3 2 ack 40 ------- 0 3.1 2.0 19 211
- 0.690693 1 2 tcp 1040 ------- 0 1.1 2.1 23 160
- 0.690693 2 3 tcp 1040 ------- 0 2.0 3.1 23 162
+ 0.69125 0 1 cbr 210 ------- 0 0.0 1.0 51 212
- 0.69125 0 1 cbr 210 ------- 0 0.0 1.0 51 212
+ 0.69125 3 0 cbr 210 ------- 0 3.0 0.1 51 213
- 0.69125 3 0 cbr 210 ------- 0 3.0 0.1 51 213
r 0.69237 0 1 cbr 210 ------- 0 0.0 1.0 47 186
r 0.69237 3 0 cbr 210 ------- 0 3.0 0.1 47 187
r 0.693173 2 1 ack 40 ------- 0 2.1 1.1 17 192
+ 0.693173 1 2 tcp 1040 ------- 0 1.1 2.1 35 214
+ 0.693173 1 2 tcp 1040 ------- 0 1.1 2.1 36 215
r 0.693173 3 2 ack 40 ------- 0 3.1 2.0 17 193
+ 0.693173 2 3 tcp 1040 ------- 0 2.0 3.1 35 216
+ 0.693173 2 3 tcp 1040 ------- 0 2.0 3.1 36 217
r 0.6946 1 2 tcp 1040 ------- 0 1.1 2.1 20 143
+ 0.6946 2 1 ack 40 ------- 0 2.1 1.1 20 218
- 0.6946 2 1 ack 40 ------- 0 2.1 1.1 20 218
r 0.6946 2 3 tcp 1040 ------- 0 2.0 3.1 20 145
+ 0.6946 3 2 ack 40 ------- 0 3.1 2.0 20 219
- 0.6946 3 2 ack 40 ------- 0 3.1 2.0 20 219
+ 0.695 0 1 cbr 210 ------- 0 0.0 1.0 52 220
- 0.695 0 1 cbr 210 ------- 0 0.0 1.0 52 220
+ 0.695 3 0 cbr 210 ------- 0 3.0 0.1 52 221
- 0.695 3 0 cbr 210 ------- 0 3.0 0.1 52 221
r 0.69612 0 1 cbr 210 ------- 0 0.0 1.0 48 194
r 0.69612 3 0 cbr 210 ------- 0 3.0 0.1 48 195
- 0.69624 1 2 tcp 1040 ------- 0 1.1 2.1 24 161
- 0.69624 2 3 tcp 1040 ------- 0 2.0 3.1 24 163
r 0.69872 2 1 ack 40 ------- 0 2.1 1.1 18 200
+ 0.69872 1 2 tcp 1040 ------- 0 1.1 2.1 37 222
+ 0.69872 1 2 tcp 1040 ------- 0 1.1 2.1 38 223
r 0.69872 3 2 ack 40 ------- 0 3.1 2.0 18 201
+ 0.69872 2 3 tcp 1040 ------- 0 2.0 3.1 37 224
+ 0.69872 2 3 tcp 1040 ------- 0 2.0 3.1 38 225
+ 0.69875 0 1 cbr 210 ------- 0 0.0 1.0 53 226
- 0.69875 0 1 cbr 210 ------- 0 0.0 1.0 53 226
+ 0.69875 3 0 cbr 210 ------- 0 3.0 0.1 53 227
- 0.69875 3 0 cbr 210 ------- 0 3.0 0.1 53 227
r 0.69987 0 1 cbr 210 ------- 0 0.0 1.0 49 202
r 0.69987 3 0 cbr 210 ------- 0 3.0 0.1 49 203
r 0.700147 1 2 tcp 1040 ------- 0 1.1 2.1 21 152
+ 0.700147 2 1 ack 40 ------- 0 2.1 1.1 21 228
- 0.700147 2 1 ack 40 ------- 0 2.1 1.1 21 228
r 0.700147 2 3 tcp 1040 ------- 0 2.0 3.1 21 154
+ 0.700147 3 2 ack 40 ------- 0 3.1 2.0 21 229
- 0.700147 3 2 ack 40 ------- 0 3.1 2.0 21 229
- 0.701787 1 2 tcp 1040 ------- 0 1.1 2.1 25 170
- 0.701787 2 3 tcp 1040 ------- 0 2.0 3.1 25 172
+ 0.7025 0 1 cbr 210 ------- 0 0.0 1.0 54 230
- 0.7025 0 1 cbr 210 ------- 0 0.0 1.0 54 230
+ 0.7025 3 0 cbr 210 ------- 0 3.0 0.1 54 231
- 0.7025 3 0 cbr 210 ------- 0 3.0 0.1 54 231
r 0.70362 0 1 cbr 210 ------- 0 0.0 1.0 50 204
r 0.70362 3 0 cbr 210 ------- 0 3.0 0.1 50 205
r 0.704267 2 1 ack 40 ------- 0 2.1 1.1 19 210
+ 0.704267 1 2 tcp 1040 ------- 0 1.1 2.1 39 232
+ 0.704267 1 2 tcp 1040 ------- 0 1.1 2.1 40 233
r 0.704267 3 2 ack 40 ------- 0 3.1 2.0 19 211
+ 0.704267 2 3 tcp 1040 ------- 0 2.0 3.1 39 234
+ 0.704267 2 3 tcp 1040 ------- 0 2.0 3.1 40 235
r 0.705693 1 2 tcp 1040 ------- 0 1.1 2.1 22 153
+ 0.705693 2 1 ack 40 ------- 0 2.1 1.1 22 236
- 0.705693 2 1 ack 40 ------- 0 2.1 1.1 22 236
r 0.705693 2 3 tcp 1040 ------- 0 2.0 3.1 22 155
+ 0.705693 3 2 ack 40 ------- 0 3.1 2.0 22 237
- 0.705693 3 2 ack 40 ------- 0 3.1 2.0 22 237
+ 0.70625 0 1 cbr 210 ------- 0 0.0 1.0 55 238
- 0.70625 0 1 cbr 210 ------- 0 0.0 1.0 55 238
+ 0.70625 3 0 cbr 210 ------- 0 3.0 0.1 55 239
- 0.70625 3 0 cbr 210 ------- 0 3.0 0.1 55 239
- 0.707333 1 2 tcp 1040 ------- 0 1.1 2.1 26 171
- 0.707333 2 3 tcp 1040 ------- 0 2.0 3.1 26 173
r 0.70737 0 1 cbr 210 ------- 0 0.0 1.0 51 212
r 0.70737 3 0 cbr 210 ------- 0 3.0 0.1 51 213
r 0.709813 2 1 ack 40 ------- 0 2.1 1.1 20 218
+ 0.709813 1 2 tcp 1040 ------- 0 1.1 2.1 41 240
+ 0.709813 1 2 tcp 1040 ------- 0 1.1 2.1 42 241
r 0.709813 3 2 ack 40 ------- 0 3.1 2.0 20 219
+ 0.709813 2 3 tcp 1040 ------- 0 2.0 3.1 41 242
+ 0.709813 2 3 tcp 1040 ------- 0 2.0 3.1 42 243